 Gaussian 16, Revision C.01,
 Gaussian 16:  ES64L-G16RevC.01  3-Jul-2019

 ----------------------------------------------------------------------
 #p opt=Restart wb97xd/6-31G** iop(3/107=0103900000,3/108=0103900000) T
 DA=(singlets, nstates=4, root=2)
 ----------------------------------------------------------------------

 SCF Done:  E(RwB97XD) =  -3503.76959585     A.U. after    6 cycles
 SCF Done:  E(RwB97XD) =  -3503.76959800     A.U. after    6 cycles
 SCF Done:  E(RwB97XD) =  -3503.76959955     A.U. after    6 cycles
 SCF Done:  E(RwB97XD) =  -3503.76960027     A.U. after    5 cycles

 Excitation energies and oscillator strengths:

 Excited State   1:      Singlet-A      2.9260 eV  423.74 nm  f=0.0112  <S**2>=0.000
     280 -> 283       -0.20098
     281 -> 283       -0.66299

 Excited State   2:      Singlet-A      2.6541 eV  467.15 nm  f=0.0043  <S**2>=0.000
     282 -> 283        0.69488
 This state for optimization and/or second-order correction.
 Total Energy, E(CIS/TDA) =  -3503.67206571
 Copying the excited state density for this state as the 1-particle RhoCI density.

 Excited State   3:      Singlet-A      3.0346 eV  408.56 nm  f=0.0037  <S**2>=0.000
     280 -> 283       -0.66207
     281 -> 283        0.19687

 Excited State   4:      Singlet-A      3.3890 eV  365.85 nm  f=0.0011  <S**2>=0.000
     279 -> 283        0.69422

 Optimization completed.
    -- Stationary point found.

                         Standard orientation:
 ---------------------------------------------------------------------
 Center     Atomic      Atomic             Coordinates (Angstroms)
 Number     Number       Type             X           Y           Z
 ---------------------------------------------------------------------
      1          6           0       -2.174637   -0.829056    1.608325
      2          6           0       -1.649563    1.348712    1.468960
      3          6           0       -2.182992   -2.217126    1.506910
      4          6           0       -3.156127   -0.138545    2.358910
      5          6           0       -1.026665    2.567717    1.204305
      6          6           0       -2.810969    1.273867    2.277748
      7          6           0       -3.210910   -2.908680    2.151141
      8          1           0       -1.401014   -2.737868    0.969476
      9          6           0       -4.163568   -0.852716    2.988850
     10          6           0       -1.586058    3.716856    1.762087
     11          1           0       -0.119761    2.609105    0.613749
     12          6           0       -3.345440    2.434324    2.814777
     13          6           0       -4.212112   -2.258576    2.890634
     14          1           0       -3.215565   -3.987964    2.070375
     15          1           0       -4.915586   -0.320371    3.562016
     16          6           0       -2.738010    3.682811    2.567359
     17          1           0       -1.094562    4.661140    1.566029
     18          1           0       -4.230803    2.374162    3.439194
     19          6           0       -0.243058   -0.219340    0.126128
     20          6           0       -0.581193   -0.357998   -1.263438
     21          6           0        0.373963   -0.608052   -2.211984
     22          6           0        1.736700   -0.711695   -1.844628
     23          6           0        2.093695   -0.524242   -0.444093
     24          6           0        1.113675   -0.284522    0.493490
     25          1           0        0.101006   -0.752829   -3.250934
     26          6           0        4.193749   -1.512683    0.527516
     27          6           0        4.197697    0.696517    0.089805
     28          6           0        3.864065   -2.860816    0.659305
     29          6           0        5.431363   -1.015842    0.987189
     30          6           0        3.882666    1.987732   -0.320179
     31          6           0        5.437700    0.405214    0.703050
     32          6           0        4.797430   -3.694938    1.256867
     33          1           0        2.924704   -3.242387    0.279301
     34          6           0        6.353802   -1.884720    1.582561
     35          6           0        4.830764    2.985817   -0.113738
     36          1           0        2.939699    2.201660   -0.809731
     37          6           0        6.364674    1.428798    0.899821
     38          6           0        6.051299   -3.237926    1.728628
     39          1           0        4.547640   -4.747060    1.351802
     40          1           0        7.300629   -1.485543    1.926840
     41          6           0        6.078933    2.736760    0.492396
     42          1           0        4.585948    3.986969   -0.447079
     43          1           0        7.314653    1.196240    1.371794
     44          6           0       -5.340449   -3.019464    3.606587
     45          6           0       -3.331938    4.946427    3.212042
     46          7           0       -1.286013    0.080694    1.052919
     47          7           0        3.454768   -0.472920   -0.029444
     48          6           0        7.122736    3.845891    0.720961
     49          6           0        7.024595   -4.242859    2.369888
     50         16           0        2.846277   -1.316659   -3.051720
     51          6           0        4.111341   -0.051140   -3.245356
     52          6           0        3.792686    1.128745   -3.919741
     53          6           0        5.380219   -0.257511   -2.710535
     54          6           0        4.761607    2.119419   -4.049077
     55          1           0        2.802908    1.256508   -4.343398
     56          6           0        6.342669    0.743080   -2.841181
     57          1           0        5.595576   -1.184845   -2.193029
     58          6           0        6.034457    1.928455   -3.505960
     59          1           0        4.526282    3.039092   -4.574555
     60          1           0        7.327713    0.597452   -2.413086
     61          1           0        6.785230    2.705211   -3.604250
     62          8           0        3.537699   -2.520742   -2.566447
     63          8           0        2.102701   -1.370028   -4.323566
     64          1           0        1.404672   -0.122466    1.525941
     65          6           0        7.393412    3.992834    2.235669
     66          1           0        7.777485    3.065030    2.668622
     67          1           0        8.133349    4.779437    2.421452
     68          1           0        6.474690    4.253517    2.769717
     69          6           0        6.656184    5.211632    0.184671
     70          1           0        6.467161    5.180591   -0.892927
     71          1           0        5.744759    5.554455    0.684404
     72          1           0        7.431710    5.963131    0.362968
     73          6           0        8.438483    3.476385   -0.000713
     74          1           0        8.270835    3.365220   -1.075719
     75          1           0        9.193252    4.256232    0.149887
     76          1           0        8.854818    2.536012    0.370573
     77          6           0        6.360225   -4.889837    3.606595
     78          1           0        5.444882   -5.426124    3.341510
     79          1           0        7.041266   -5.607450    4.077561
     80          1           0        6.098228   -4.128956    4.348060
     81          6           0        8.334239   -3.575863    2.828180
     82          1           0        8.873386   -3.123723    1.989881
     83          1           0        8.153321   -2.801026    3.579865
     84          1           0        8.993122   -4.325133    3.278056
     85          6           0        7.381543   -5.342039    1.343221
     86          1           0        6.496426   -5.892408    1.013016
     87          1           0        7.850357   -4.905681    0.456398
     88          1           0        8.079499   -6.064624    1.780725
     89          6           0       -4.806558    5.108325    2.778238
     90          1           0       -5.418616    4.251794    3.073364
     91          1           0       -5.241841    5.999861    3.240961
     92          1           0       -4.881945    5.217556    1.693013
     93          6           0       -3.260699    4.807078    4.750951
     94          1           0       -3.670042    5.701138    5.232478
     95          1           0       -3.832175    3.946011    5.108371
     96          1           0       -2.225976    4.683132    5.082850
     97          6           0       -2.573590    6.224112    2.809111
     98          1           0       -1.529652    6.199392    3.135481
     99          1           0       -2.594488    6.385590    1.726800
    100          1           0       -3.042629    7.092604    3.280333
    101          6           0       -6.707094   -2.521836    3.081843
    102          1           0       -7.522306   -3.065346    3.570458
    103          1           0       -6.857061   -1.456613    3.278211
    104          1           0       -6.789878   -2.677021    2.002691
    105          6           0       -5.246490   -2.757979    5.127844
    106          1           0       -5.349768   -1.695647    5.365805
    107          1           0       -6.041474   -3.294937    5.655613
    108          1           0       -4.284431   -3.097206    5.522360
    109          6           0       -5.261742   -4.539298    3.376060
    110          1           0       -5.335702   -4.794652    2.314732
    111          1           0       -4.332892   -4.963458    3.769120
    112          1           0       -6.090703   -5.032333    3.891973
    113          7           0       -1.978302   -0.305146   -1.596895
    114          6           0       -2.749260    0.839079   -1.718557
    115          6           0       -2.800664   -1.405372   -1.710160
    116          6           0       -2.347385    2.171437   -1.714065
    117          6           0       -4.108753    0.476451   -1.876629
    118          6           0       -2.460357   -2.758771   -1.687863
    119          6           0       -4.143474   -0.980452   -1.879316
    120          6           0       -3.339033    3.147070   -1.840560
    121          1           0       -1.300960    2.435989   -1.640911
    122          6           0       -5.068615    1.465891   -2.003196
    123          6           0       -3.490211   -3.685749   -1.839715
    124          1           0       -1.427769   -3.069464   -1.590282
    125          6           0       -5.143272   -1.925791   -2.024180
    126          6           0       -4.698299    2.828454   -1.979768
    127          1           0       -3.026785    4.183070   -1.832002
    128          1           0       -6.110201    1.186844   -2.121984
    129          6           0       -4.832261   -3.303813   -2.009580
    130          1           0       -3.225802   -4.734977   -1.834577
    131          1           0       -6.169550   -1.601411   -2.159128
    132          6           0       -5.790231    3.900713   -2.122767
    133          6           0       -5.961651   -4.326645   -2.210679
    134          6           0       -5.222609    5.329220   -2.044930
    135          6           0       -6.491668    3.733898   -3.490906
    136          6           0       -6.825685    3.729358   -0.987187
    137          6           0       -5.460435   -5.779925   -2.130450
    138          6           0       -7.039343   -4.129893   -1.119962
    139          6           0       -6.593720   -4.108433   -3.605784
    140          1           0       -4.721347    5.516571   -1.090694
    141          1           0       -4.513479    5.530670   -2.853501
    142          1           0       -6.037389    6.053004   -2.136762
    143          1           0       -5.777112    3.845559   -4.311403
    144          1           0       -6.964698    2.752985   -3.590135
    145          1           0       -7.272271    4.491952   -3.611421
    146          1           0       -6.348136    3.818063   -0.007745
    147          1           0       -7.600876    4.498608   -1.062634
    148          1           0       -7.322505    2.756177   -1.029541
    149          1           0       -4.728157   -6.003361   -2.911842
    150          1           0       -5.009441   -6.002036   -1.158356
    151          1           0       -6.302109   -6.464871   -2.266379
    152          1           0       -7.478475   -3.129075   -1.149895
    153          1           0       -7.851556   -4.850476   -1.258229
    154          1           0       -6.615613   -4.281799   -0.123795
    155          1           0       -7.023948   -3.108188   -3.706785
    156          1           0       -5.847633   -4.233908   -4.395470
    157          1           0       -7.396026   -4.833818   -3.774543
 ---------------------------------------------------------------------

 The electronic state is 1-A.
 Alpha  occ. eigenvalues --  -89.22556 -19.22522 -19.22360 -14.46786 -14.46392
 Alpha  occ. eigenvalues --  -14.45947 -10.35448 -10.34968 -10.34200 -10.32980
 Alpha  occ. eigenvalues --  -10.30863 -10.30619 -10.29887 -10.29700 -10.29668
 Alpha  occ. eigenvalues --  -10.29462 -10.29266 -10.29075 -10.29053 -10.28341
 Alpha  occ. eigenvalues --  -10.27886 -10.27861 -10.27710 -10.27682 -10.27464
 Alpha  occ. eigenvalues --  -10.27173 -10.27151 -10.26896 -10.26860 -10.26839
 Alpha  occ. eigenvalues --  -10.26331 -10.26311 -10.26266 -10.26068 -10.26007
 Alpha  occ. eigenvalues --  -10.25957 -10.25906 -10.25877 -10.25831 -10.25830
 Alpha  occ. eigenvalues --  -10.25715 -10.25708 -10.25674 -10.25568 -10.25529
 Alpha  occ. eigenvalues --  -10.25522 -10.25504 -10.25492 -10.25492 -10.25448
 Alpha  occ. eigenvalues --  -10.25435 -10.25431 -10.25380 -10.25377 -10.25290
 Alpha  occ. eigenvalues --  -10.25205 -10.25161 -10.25122 -10.25073 -10.25043
 Alpha  occ. eigenvalues --  -10.24645 -10.24640 -10.24412 -10.24187 -10.24163
 Alpha  occ. eigenvalues --  -10.23990 -10.23990 -10.23961 -10.23930 -10.23895
 Alpha  occ. eigenvalues --  -10.23895 -10.23855 -10.23768 -10.23746 -10.23725
 Alpha  occ. eigenvalues --  -10.23682 -10.23669 -10.23655  -8.20928  -6.15886
 Alpha  occ. eigenvalues --   -6.15858  -6.15781  -1.15880  -1.06576  -1.05997
 Alpha  occ. eigenvalues --   -1.05238  -1.04509  -0.95765  -0.92846  -0.91888
 Alpha  occ. eigenvalues --   -0.90960  -0.90767  -0.90495  -0.90232  -0.90220
 Alpha  occ. eigenvalues --   -0.87957  -0.87415  -0.86602  -0.86335  -0.86178
 Alpha  occ. eigenvalues --   -0.85917  -0.85019  -0.83997  -0.83065  -0.82615
 Alpha  occ. eigenvalues --   -0.82083  -0.81546  -0.81499  -0.79644  -0.79255
 Alpha  occ. eigenvalues --   -0.78877  -0.78368  -0.77554  -0.77122  -0.76791
 Alpha  occ. eigenvalues --   -0.76572  -0.75998  -0.74034  -0.73957  -0.73745
 Alpha  occ. eigenvalues --   -0.73498  -0.73341  -0.73310  -0.73246  -0.73175
 Alpha  occ. eigenvalues --   -0.73070  -0.73022  -0.72958  -0.72946  -0.72933
 Alpha  occ. eigenvalues --   -0.71440  -0.70351  -0.68747  -0.68170  -0.67463
 Alpha  occ. eigenvalues --   -0.67189  -0.66827  -0.66583  -0.66230  -0.65601
 Alpha  occ. eigenvalues --   -0.65292  -0.64149  -0.62766  -0.62575  -0.62505
 Alpha  occ. eigenvalues --   -0.62014  -0.60932  -0.60282  -0.60062  -0.59686
 Alpha  occ. eigenvalues --   -0.59243  -0.58907  -0.58667  -0.58386  -0.57901
 Alpha  occ. eigenvalues --   -0.57758  -0.56412  -0.56342  -0.55940  -0.55664
 Alpha  occ. eigenvalues --   -0.53869  -0.53120  -0.52722  -0.52566  -0.52247
 Alpha  occ. eigenvalues --   -0.51959  -0.51879  -0.51397  -0.51260  -0.50934
 Alpha  occ. eigenvalues --   -0.50797  -0.50581  -0.50272  -0.50043  -0.49783
 Alpha  occ. eigenvalues --   -0.49560  -0.49486  -0.49291  -0.48956  -0.48898
 Alpha  occ. eigenvalues --   -0.48837  -0.48698  -0.48502  -0.48268  -0.48151
 Alpha  occ. eigenvalues --   -0.48101  -0.47985  -0.47924  -0.47910  -0.47843
 Alpha  occ. eigenvalues --   -0.47413  -0.46984  -0.46912  -0.46863  -0.46751
 Alpha  occ. eigenvalues --   -0.46531  -0.46340  -0.46299  -0.46183  -0.46031
 Alpha  occ. eigenvalues --   -0.45768  -0.45701  -0.45437  -0.45412  -0.45321
 Alpha  occ. eigenvalues --   -0.44607  -0.44293  -0.43994  -0.43736  -0.43528
 Alpha  occ. eigenvalues --   -0.43462  -0.43404  -0.43268  -0.43080  -0.43037
 Alpha  occ. eigenvalues --   -0.42953  -0.42756  -0.42531  -0.42335  -0.42098
 Alpha  occ. eigenvalues --   -0.41871  -0.41813  -0.41598  -0.41579  -0.41525
 Alpha  occ. eigenvalues --   -0.41173  -0.40716  -0.40605  -0.40460  -0.40423
 Alpha  occ. eigenvalues --   -0.40421  -0.40376  -0.40072  -0.39847  -0.39628
 Alpha  occ. eigenvalues --   -0.39583  -0.39386  -0.39239  -0.38970  -0.38679
 Alpha  occ. eigenvalues --   -0.38483  -0.38298  -0.37923  -0.37835  -0.37424
 Alpha  occ. eigenvalues --   -0.37090  -0.37077  -0.36880  -0.36679  -0.36518
 Alpha  occ. eigenvalues --   -0.36484  -0.36344  -0.36254  -0.36134  -0.36072
 Alpha  occ. eigenvalues --   -0.35927  -0.35858  -0.35621  -0.35521  -0.35456
 Alpha  occ. eigenvalues --   -0.35381  -0.35219  -0.35149  -0.35110  -0.35047
 Alpha  occ. eigenvalues --   -0.34309  -0.34067  -0.33137  -0.32503  -0.32353
 Alpha  occ. eigenvalues --   -0.31140  -0.30920  -0.30825  -0.28966  -0.28935
 Alpha  occ. eigenvalues --   -0.27445  -0.25469  -0.25403  -0.24786  -0.24449
 Alpha  occ. eigenvalues --   -0.23936  -0.22773
 Alpha virt. eigenvalues --   -0.03636   0.00122   0.01438   0.01649   0.01817
 Alpha virt. eigenvalues --    0.02890   0.03326   0.05023   0.05215   0.06027
 Alpha virt. eigenvalues --    0.07170   0.07566   0.08210   0.09023   0.09221

 Mulliken charges:
               1
     1  C    0.313854
     2  C    0.321117
     3  C   -0.143630
     4  C    0.026083
     5  C   -0.165847
     6  C    0.029425
     7  C   -0.175438
     8  H    0.127628
     9  C   -0.200793
    10  C   -0.177699
    11  H    0.130786
    12  C   -0.201771
    13  C    0.119723
    14  H    0.121322
    15  H    0.123088
    16  C    0.119557
    17  H    0.118626
    18  H    0.124654
    19  C    0.208152
    20  C    0.226680
    21  C   -0.147110
    22  C   -0.236135
    23  C    0.212353
    24  C   -0.109972
    25  H    0.224564
    26  C    0.297921
    27  C    0.301493
    28  C   -0.133426
    29  C    0.008333
    30  C   -0.157736
    31  C    0.024936
    32  C   -0.178459
    33  H    0.148929
    34  C   -0.206075
    35  C   -0.177631
    36  H    0.133749
    37  C   -0.203975
    38  C    0.126249
    39  H    0.124371
    40  H    0.122810
    41  C    0.120070
    42  H    0.120165
    43  H    0.124802
    44  C   -0.066798
    45  C   -0.068161
    46  N   -0.759340
    47  N   -0.757008
    48  C   -0.067245
    49  C   -0.074243
    50  S    1.216584
    51  C   -0.212930
    52  C   -0.118755
    53  C   -0.112342
    54  C   -0.137976
    55  H    0.170726
    56  C   -0.124543
    57  H    0.191387
    58  C   -0.121953
    59  H    0.149081
    60  H    0.155936
    61  H    0.148724
    62  O   -0.548477
    63  O   -0.572171
    64  H    0.201795
    65  C   -0.363327
    66  H    0.124874
    67  H    0.123440
    68  H    0.136092
    69  C   -0.385617
    70  H    0.127093
    71  H    0.131437
    72  H    0.127442
    73  C   -0.365621
    74  H    0.128995
    75  H    0.125157
    76  H    0.123526
    77  C   -0.364519
    78  H    0.124397
    79  H    0.123611
    80  H    0.134420
    81  C   -0.381511
    82  H    0.128513
    83  H    0.129458
    84  H    0.126744
    85  C   -0.364079
    86  H    0.126896
    87  H    0.135770
    88  H    0.122908
    89  C   -0.370577
    90  H    0.124597
    91  H    0.121995
    92  H    0.140520
    93  C   -0.362590
    94  H    0.121635
    95  H    0.124555
    96  H    0.134961
    97  C   -0.386720
    98  H    0.129832
    99  H    0.129206
   100  H    0.126252
   101  C   -0.369274
   102  H    0.120540
   103  H    0.122392
   104  H    0.143140
   105  C   -0.362704
   106  H    0.122949
   107  H    0.121577
   108  H    0.134443
   109  C   -0.390950
   110  H    0.134884
   111  H    0.129652
   112  H    0.125411
   113  N   -0.752330
   114  C    0.316093
   115  C    0.321068
   116  C   -0.145027
   117  C    0.025953
   118  C   -0.166197
   119  C    0.029856
   120  C   -0.174442
   121  H    0.121100
   122  C   -0.202148
   123  C   -0.177826
   124  H    0.135721
   125  C   -0.202554
   126  C    0.119166
   127  H    0.117885
   128  H    0.123105
   129  C    0.118548
   130  H    0.121162
   131  H    0.123413
   132  C   -0.066397
   133  C   -0.068017
   134  C   -0.390955
   135  C   -0.362726
   136  C   -0.369160
   137  C   -0.386959
   138  C   -0.370462
   139  C   -0.362758
   140  H    0.133766
   141  H    0.129029
   142  H    0.125092
   143  H    0.134421
   144  H    0.123942
   145  H    0.120952
   146  H    0.142236
   147  H    0.119916
   148  H    0.123014
   149  H    0.132114
   150  H    0.128782
   151  H    0.125535
   152  H    0.123773
   153  H    0.121415
   154  H    0.139825
   155  H    0.123703
   156  H    0.136622
   157  H    0.120894
 Sum of Mulliken charges =  -0.00000

 Dipole moment (field-independent basis, Debye):
    X=              1.0571    Y=              3.6884    Z=              2.5288  Tot=              4.5953
 Quadrupole moment (field-independent basis, Debye-Ang):
   XX=           -429.4149   YY=           -443.3790   ZZ=           -483.8093
   XY=             17.0301   XZ=              2.6355   YZ=            -18.4075

 Normal termination of Gaussian 16 at Tue Aug 27 17:08:07 2024.
