 Gaussian 16, Revision C.01,
 Gaussian 16:  ES64L-G16RevC.01  3-Jul-2019

 ----------------------------------------------------------------------
 #p opt wB97XD/6-31G** iop(3/107=0158200000) IOP(3/108=0158200000) TDA=
 (singlets, nstates=4, root=2)
 ----------------------------------------------------------------------

 ------------------------------------------------------------
 Tuning input file generated by xtune with parameters: w01582
 ------------------------------------------------------------
 Symbolic Z-matrix:
 Charge =  0 Multiplicity = 1

 SCF Done:  E(RwB97XD) =  -1527.82787015     A.U. after   16 cycles
 SCF Done:  E(RwB97XD) =  -1527.82499509     A.U. after   13 cycles
 SCF Done:  E(RwB97XD) =  -1527.82352114     A.U. after   14 cycles
 SCF Done:  E(RwB97XD) =  -1527.82431929     A.U. after   13 cycles
 SCF Done:  E(RwB97XD) =  -1527.82410603     A.U. after   12 cycles
 SCF Done:  E(RwB97XD) =  -1527.82406886     A.U. after   10 cycles
 SCF Done:  E(RwB97XD) =  -1527.82406221     A.U. after    9 cycles
 SCF Done:  E(RwB97XD) =  -1527.82407470     A.U. after    7 cycles
 SCF Done:  E(RwB97XD) =  -1527.82407463     A.U. after    7 cycles
 SCF Done:  E(RwB97XD) =  -1527.82407375     A.U. after    7 cycles
 SCF Done:  E(RwB97XD) =  -1527.82407319     A.U. after    6 cycles

 Excitation energies and oscillator strengths:

 Excited State   1:      Singlet-A      4.2301 eV  293.10 nm  f=0.3229  <S**2>=0.000
     100 ->101         0.61419
     100 ->102        -0.13588
     100 ->104        -0.27496

 Excited State   2:      Singlet-A      4.2846 eV  289.37 nm  f=0.0133  <S**2>=0.000
      99 ->106        -0.22861
     100 ->101        -0.13914
     100 ->102        -0.63413
 This state for optimization and/or second-order correction.
 Total Energy, E(CIS/TDA) =  -1527.66661825
 Copying the excited state density for this state as the 1-particle RhoCI density.

 Excited State   3:      Singlet-A      4.7387 eV  261.64 nm  f=0.0051  <S**2>=0.000
      95 ->101         0.16232
     100 ->103        -0.59266
     100 ->105        -0.26259

 Excited State   4:      Singlet-A      4.8364 eV  256.36 nm  f=0.1402  <S**2>=0.000
      98 ->102        -0.15365
      99 ->101        -0.10291
      99 ->102        -0.56720
     100 ->106         0.30396
     100 ->108         0.11635

 Optimization completed.
    -- Stationary point found.

                         Standard orientation:
 ---------------------------------------------------------------------
 Center     Atomic      Atomic             Coordinates (Angstroms)
 Number     Number       Type             X           Y           Z
 ---------------------------------------------------------------------
      1          6           0        3.282287   -0.960464    0.158920
      2          6           0        2.778390    1.254492   -0.151935
      3          6           0        3.199723   -2.341534    0.263815
      4          6           0        4.506030   -0.228068    0.229028
      5          6           0        2.100009    2.450620   -0.333983
      6          6           0        4.188747    1.160254    0.044594
      7          6           0        4.413447   -3.039926    0.485326
      8          1           0        2.257118   -2.866226    0.163408
      9          6           0        5.695550   -0.940483    0.430165
     10          6           0        2.883113    3.633171   -0.353953
     11          1           0        1.022276    2.484693   -0.439942
     12          6           0        4.940823    2.343197    0.040315
     13          6           0        5.621268   -2.344658    0.563782
     14          1           0        4.399417   -4.118512    0.585664
     15          1           0        6.651727   -0.432047    0.471881
     16          6           0        4.264889    3.565301   -0.170055
     17          1           0        2.401489    4.591680   -0.505909
     18          1           0        6.011932    2.325764    0.204240
     19          6           0        0.894893   -0.366171   -0.209410
     20          6           0        0.256559   -1.092291    0.802433
     21          6           0       -1.088210   -1.409171    0.669269
     22          6           0       -1.778868   -0.989050   -0.466739
     23          6           0       -1.145819   -0.273019   -1.481982
     24          6           0        0.200808    0.038135   -1.355974
     25          7           0        2.263117   -0.039063   -0.074351
     26         16           0       -3.525157   -1.362727   -0.616808
     27          8           0       -3.795107   -2.522412    0.231810
     28          1           0        6.539372   -2.901222    0.725084
     29          1           0        4.842938    4.484298   -0.180679
     30          1           0       -1.601858   -1.985597    1.430300
     31          1           0       -1.700604    0.009197   -2.369628
     32          1           0        0.726610    0.572103   -2.139089
     33          1           0        0.816405   -1.390595    1.681479
     34          8           0       -3.851039   -1.353925   -2.042054
     35          6           0       -4.313480    0.058886    0.132624
     36          6           0       -4.567096    0.050095    1.502451
     37          6           0       -4.641683    1.152201   -0.665904
     38          6           0       -5.155412    1.169286    2.084102
     39          1           0       -4.324653   -0.827879    2.090813
     40          6           0       -5.229854    2.265273   -0.072204
     41          1           0       -4.456382    1.115558   -1.733671
     42          6           0       -5.481566    2.274610    1.299154
     43          1           0       -5.364899    1.175846    3.148362
     44          1           0       -5.497440    3.122143   -0.681147
     45          1           0       -5.940879    3.144448    1.757152
 ---------------------------------------------------------------------

 The electronic state is 1-A.
 Alpha  occ. eigenvalues --  -89.24481 -19.24737 -19.24732 -14.48935 -10.35281
 Alpha  occ. eigenvalues --  -10.32818 -10.32776 -10.32734 -10.32552 -10.31715
 Alpha  occ. eigenvalues --  -10.31713 -10.31174 -10.31173 -10.31122 -10.31121
 Alpha  occ. eigenvalues --  -10.30877 -10.30679 -10.30668 -10.29283 -10.29221
 Alpha  occ. eigenvalues --  -10.29196 -10.29193 -10.29146 -10.29138 -10.29085
 Alpha  occ. eigenvalues --  -10.29037 -10.28355 -10.28272  -8.22988  -6.17959
 Alpha  occ. eigenvalues --   -6.17897  -6.17837  -1.18700  -1.08490  -1.08319
 Alpha  occ. eigenvalues --   -0.97223  -0.96222  -0.93187  -0.92895  -0.88159
 Alpha  occ. eigenvalues --   -0.86447  -0.85850  -0.84922  -0.84689  -0.83373
 Alpha  occ. eigenvalues --   -0.80668  -0.80043  -0.76349  -0.72914  -0.71833
 Alpha  occ. eigenvalues --   -0.70512  -0.70395  -0.68269  -0.67298  -0.65867
 Alpha  occ. eigenvalues --   -0.65519  -0.62921  -0.61552  -0.59606  -0.59210
 Alpha  occ. eigenvalues --   -0.57728  -0.56671  -0.55592  -0.54707  -0.54211
 Alpha  occ. eigenvalues --   -0.53265  -0.53105  -0.52741  -0.52063  -0.51519
 Alpha  occ. eigenvalues --   -0.51259  -0.51222  -0.51020  -0.49694  -0.49479
 Alpha  occ. eigenvalues --   -0.49297  -0.48043  -0.46952  -0.45831  -0.45001
 Alpha  occ. eigenvalues --   -0.44337  -0.43524  -0.43264  -0.43185  -0.42795
 Alpha  occ. eigenvalues --   -0.41125  -0.40905  -0.40189  -0.39772  -0.38840
 Alpha  occ. eigenvalues --   -0.37210  -0.35776  -0.35582  -0.34962  -0.34502
 Alpha  occ. eigenvalues --   -0.33667  -0.32892  -0.32076  -0.27754  -0.26228
 Alpha virt. eigenvalues --    0.00102   0.01924   0.02837   0.03686   0.04266
 Alpha virt. eigenvalues --    0.05993   0.09011   0.10020   0.12496   0.15600
 Alpha virt. eigenvalues --    0.15827   0.16216   0.17071   0.17680   0.18296

 Mulliken charges:
               1
     1  C    0.314331
     2  C    0.313245
     3  C   -0.155841
     4  C    0.012999
     5  C   -0.154790
     6  C    0.014381
     7  C   -0.138133
     8  H    0.139541
     9  C   -0.162341
    10  C   -0.138359
    11  H    0.134978
    12  C   -0.162006
    13  C   -0.145032
    14  H    0.133699
    15  H    0.133270
    16  C   -0.144929
    17  H    0.131321
    18  H    0.133730
    19  C    0.233302
    20  C   -0.128239
    21  C   -0.122376
    22  C   -0.197635
    23  C   -0.122355
    24  C   -0.128278
    25  N   -0.750836
    26  S    1.177048
    27  O   -0.565493
    28  H    0.124393
    29  H    0.123981
    30  H    0.175088
    31  H    0.174978
    32  H    0.163991
    33  H    0.163243
    34  O   -0.565228
    35  C   -0.199750
    36  C   -0.106488
    37  C   -0.107562
    38  C   -0.128995
    39  H    0.169651
    40  C   -0.129397
    41  H    0.169987
    42  C   -0.116945
    43  H    0.145414
    44  H    0.144929
    45  H    0.143508
 Sum of Mulliken charges =  -0.00000

 Dipole moment (field-independent basis, Debye):
    X=              1.2041    Y=              4.2238    Z=              2.1916  Tot=              4.9085
 Quadrupole moment (field-independent basis, Debye-Ang):
   XX=           -162.0025   YY=           -160.3931   ZZ=           -164.6231
   XY=            -23.1825   XZ=             -9.7520   YZ=             -7.1569

 Normal termination of Gaussian 16 at Thu Aug  8 16:09:20 2024.
