 Gaussian 16, Revision C.01,
 Gaussian 16:  ES64L-G16RevC.01  3-Jul-2019

 ----------------------------------------------------------------------
 #p opt=Restart wb97xd/6-31G** iop(3/107=0105700000,3/108=0105700000) T
 DA=(singlets, nstates=4, root=2)
 ----------------------------------------------------------------------

 SCF Done:  E(RwB97XD) =  -3503.74449597     A.U. after   10 cycles
 SCF Done:  E(RwB97XD) =  -3503.74443452     A.U. after   10 cycles
 SCF Done:  E(RwB97XD) =  -3503.74441686     A.U. after    6 cycles
 SCF Done:  E(RwB97XD) =  -3503.74443427     A.U. after    6 cycles
 SCF Done:  E(RwB97XD) =  -3503.74441232     A.U. after    6 cycles
 SCF Done:  E(RwB97XD) =  -3503.74442519     A.U. after    6 cycles
 SCF Done:  E(RwB97XD) =  -3503.74443040     A.U. after    5 cycles

 Excitation energies and oscillator strengths:

 Excited State   1:      Singlet-A      2.5450 eV  487.17 nm  f=0.0079  <S**2>=0.000
     281 -> 283       -0.68085

 Excited State   2:      Singlet-A      2.1470 eV  577.46 nm  f=0.0070  <S**2>=0.000
     282 -> 283        0.69024
 This state for optimization and/or second-order correction.
 Total Energy, E(CIS/TDA) =  -3503.66552795
 Copying the excited state density for this state as the 1-particle RhoCI density.

 Excited State   3:      Singlet-A      2.6602 eV  466.06 nm  f=0.0050  <S**2>=0.000
     280 -> 283        0.68678

 Excited State   4:      Singlet-A      2.9185 eV  424.83 nm  f=0.0010  <S**2>=0.000
     279 -> 283        0.68354

 Optimization completed.
    -- Stationary point found.

                         Standard orientation:
 ---------------------------------------------------------------------
 Center     Atomic      Atomic             Coordinates (Angstroms)
 Number     Number       Type             X           Y           Z
 ---------------------------------------------------------------------
      1          6           0        1.090844   -0.644553    0.399688
      2          6           0       -0.750387    0.555282    0.839550
      3          6           0        2.174017   -1.268779   -0.221735
      4          6           0        0.931729   -0.662140    1.811962
      5          6           0       -1.876184    1.366903    0.724585
      6          6           0       -0.277822    0.107024    2.094512
      7          6           0        3.099108   -1.918231    0.594470
      8          1           0        2.302175   -1.220936   -1.293144
      9          6           0        1.864405   -1.307793    2.592417
     10          6           0       -2.551094    1.700370    1.900545
     11          1           0       -2.201831    1.738877   -0.237217
     12          6           0       -0.964064    0.450925    3.240841
     13          6           0        2.976717   -1.952659    1.990800
     14          1           0        3.943580   -2.392446    0.114520
     15          1           0        1.753416   -1.310552    3.670942
     16          6           0       -2.130353    1.254102    3.160370
     17          1           0       -3.428925    2.325408    1.811575
     18          1           0       -0.608319    0.105873    4.205515
     19          6           0       -0.117992    0.384966   -1.565704
     20          6           0       -1.306092   -0.126121   -2.171814
     21          6           0       -1.956679    0.559313   -3.162577
     22          6           0       -1.469944    1.841337   -3.563420
     23          6           0       -0.267950    2.355804   -3.005426
     24          6           0        0.391578    1.652911   -2.033512
     25          1           0       -2.821468    0.129262   -3.654094
     26          1           0        0.142684    3.288198   -3.376753
     27          6           0        4.019303   -2.624805    2.893671
     28          6           0       -2.883823    1.604236    4.451744
     29          7           0        0.069388    0.076855   -0.168313
     30          6           0       -3.582397    3.596988   -3.139593
     31          6           0       -4.757275    2.932210   -2.781988
     32          6           0       -3.152266    4.722742   -2.434410
     33          6           0       -5.502924    3.397357   -1.699041
     34          1           0       -5.084468    2.077927   -3.363674
     35          6           0       -3.905160    5.180972   -1.354763
     36          1           0       -2.248155    5.234144   -2.744517
     37          6           0       -5.076400    4.517103   -0.982176
     38          1           0       -6.423580    2.893101   -1.424031
     39          1           0       -3.582505    6.061947   -0.809704
     40          1           0       -5.662411    4.880219   -0.144205
     41          8           0       -1.749596    4.021171   -4.988582
     42          8           0       -3.416880    2.103862   -5.297681
     43          6           0        3.326424   -3.659220    3.810784
     44          1           0        4.068607   -4.145141    4.451555
     45          1           0        2.580443   -3.200071    4.464792
     46          1           0        2.826326   -4.432446    3.221497
     47          6           0        4.695095   -1.534041    3.759000
     48          1           0        5.453493   -1.984188    4.407318
     49          1           0        5.182648   -0.784980    3.128703
     50          1           0        3.974564   -1.016502    4.398492
     51          6           0        5.111154   -3.352716    2.089695
     52          1           0        4.690599   -4.133825    1.449040
     53          1           0        5.686911   -2.663784    1.465781
     54          1           0        5.812216   -3.832706    2.778156
     55          6           0       -4.139478    2.453904    4.186141
     56          1           0       -3.892543    3.413939    3.722867
     57          1           0       -4.854950    1.931921    3.543610
     58          1           0       -4.642564    2.667562    5.133348
     59          6           0       -3.326142    0.296794    5.149356
     60          1           0       -2.474649   -0.330915    5.425642
     61          1           0       -3.877180    0.527966    6.066343
     62          1           0       -3.977711   -0.289676    4.496442
     63          6           0       -1.948267    2.401792    5.389314
     64          1           0       -2.470282    2.651396    6.318408
     65          1           0       -1.052229    1.834720    5.655155
     66          1           0       -1.627945    3.334785    4.917398
     67         16           0       -2.535159    2.907664   -4.440680
     68          7           0        1.657248    2.077732   -1.517971
     69          6           0        1.861327    2.673024   -0.273712
     70          6           0        2.853189    1.475077   -1.897339
     71          6           0        0.963058    3.379260    0.525543
     72          6           0        3.197964    2.478300    0.133742
     73          6           0        3.132511    0.723436   -3.036225
     74          6           0        3.840138    1.708889   -0.913012
     75          6           0        1.421472    3.855815    1.746631
     76          1           0       -0.057687    3.548189    0.202915
     77          6           0        3.633524    2.982773    1.363489
     78          6           0        4.420158    0.211139   -3.175870
     79          1           0        2.373037    0.550083   -3.790086
     80          6           0        5.123137    1.188877   -1.087184
     81          6           0        2.749938    3.670858    2.195055
     82          1           0        0.719497    4.395804    2.374036
     83          1           0        4.663519    2.822118    1.659063
     84          6           0        5.435652    0.429784   -2.220740
     85          1           0        4.635453   -0.368492   -4.065184
     86          1           0        5.877053    1.378592   -0.329196
     87          6           0        3.164558    4.220439    3.571059
     88          6           0        6.862513   -0.124566   -2.392122
     89          6           0        2.938170    5.748553    3.612252
     90          6           0        2.311540    3.543270    4.667679
     91          6           0        4.646877    3.949417    3.885365
     92          6           0        7.199555   -1.060860   -1.209718
     93          6           0        7.868376    1.048737   -2.419665
     94          6           0        7.029785   -0.926859   -3.695443
     95          1           0        1.888731    6.009547    3.450367
     96          1           0        3.234301    6.154092    4.585779
     97          1           0        3.528776    6.248548    2.839146
     98          1           0        1.245337    3.738070    4.527251
     99          1           0        2.457321    2.458732    4.655038
    100          1           0        2.591585    3.915903    5.659076
    101          1           0        4.867424    2.877499    3.909951
    102          1           0        5.309345    4.421332    3.153237
    103          1           0        4.896811    4.359251    4.868727
    104          1           0        8.218424   -1.451241   -1.305807
    105          1           0        7.131748   -0.542058   -0.249364
    106          1           0        6.512084   -1.911938   -1.183383
    107          1           0        7.842968    1.627119   -1.492026
    108          1           0        8.889781    0.675598   -2.551625
    109          1           0        7.644046    1.731606   -3.244100
    110          1           0        6.361597   -1.793214   -3.729506
    111          1           0        6.840052   -0.310341   -4.579203
    112          1           0        8.055732   -1.300179   -3.769034
    113          7           0       -1.791644   -1.373634   -1.676817
    114          6           0       -2.961228   -1.558327   -0.948753
    115          6           0       -1.060618   -2.557690   -1.636164
    116          6           0       -4.010055   -0.673047   -0.707880
    117          6           0       -2.976796   -2.869484   -0.413904
    118          6           0        0.147120   -2.871251   -2.252386
    119          6           0       -1.751968   -3.510636   -0.855484
    120          6           0       -5.066776   -1.115599    0.084904
    121          1           0       -4.016633    0.320079   -1.139991
    122          6           0       -4.051536   -3.282295    0.368237
    123          6           0        0.672603   -4.145786   -2.042705
    124          1           0        0.653699   -2.152342   -2.884780
    125          6           0       -1.201425   -4.776173   -0.666544
    126          6           0       -5.116816   -2.410427    0.635683
    127          1           0       -5.879521   -0.422899    0.265343
    128          1           0       -4.056830   -4.291840    0.767059
    129          6           0        0.028251   -5.113430   -1.249581
    130          1           0        1.613666   -4.383751   -2.523106
    131          1           0       -1.737838   -5.500739   -0.061743
    132          6           0       -6.302562   -2.902892    1.484738
    133          6           0        0.621572   -6.513321   -1.008878
    134          6           0       -5.792360   -3.402301    2.855414
    135          6           0       -7.006201   -4.064444    0.745987
    136          6           0       -7.341253   -1.795471    1.739470
    137          6           0        1.973886   -6.707533   -1.718539
    138          6           0        0.844121   -6.719028    0.506820
    139          6           0       -0.356244   -7.587242   -1.537063
    140          1           0       -6.629454   -3.749485    3.470354
    141          1           0       -5.091811   -4.235387    2.752655
    142          1           0       -5.280620   -2.601241    3.396247
    143          1           0       -7.375129   -3.736677   -0.230218
    144          1           0       -6.327909   -4.906134    0.580267
    145          1           0       -7.857889   -4.430956    1.329244
    146          1           0       -6.903048   -0.941697    2.266303
    147          1           0       -7.788652   -1.433985    0.808639
    148          1           0       -8.152012   -2.186789    2.361268
    149          1           0        1.882204   -6.606959   -2.804300
    150          1           0        2.723688   -5.991352   -1.367450
    151          1           0        2.356500   -7.711824   -1.513043
    152          1           0       -0.091027   -6.645493    1.068843
    153          1           0        1.272232   -7.708287    0.701401
    154          1           0        1.530701   -5.964310    0.901333
    155          1           0       -1.324309   -7.539495   -1.030783
    156          1           0       -0.533669   -7.457050   -2.608548
    157          1           0        0.053157   -8.590441   -1.376800
 ---------------------------------------------------------------------

 The electronic state is 1-A.
 Alpha  occ. eigenvalues --  -89.23052 -19.23074 -19.22994 -14.46700 -14.46256
 Alpha  occ. eigenvalues --  -14.46202 -10.34697 -10.34539 -10.34520 -10.32995
 Alpha  occ. eigenvalues --  -10.31250 -10.31011 -10.30960 -10.29693 -10.29549
 Alpha  occ. eigenvalues --  -10.29508 -10.29427 -10.29413 -10.29322 -10.29267
 Alpha  occ. eigenvalues --  -10.29172 -10.28996 -10.28950 -10.28671 -10.27381
 Alpha  occ. eigenvalues --  -10.27353 -10.27259 -10.27153 -10.27053 -10.26752
 Alpha  occ. eigenvalues --  -10.26101 -10.26061 -10.26052 -10.26052 -10.25999
 Alpha  occ. eigenvalues --  -10.25998 -10.25958 -10.25940 -10.25835 -10.25775
 Alpha  occ. eigenvalues --  -10.25740 -10.25709 -10.25704 -10.25702 -10.25697
 Alpha  occ. eigenvalues --  -10.25675 -10.25672 -10.25668 -10.25639 -10.25619
 Alpha  occ. eigenvalues --  -10.25522 -10.25467 -10.25373 -10.25333 -10.25331
 Alpha  occ. eigenvalues --  -10.25277 -10.25093 -10.24903 -10.24795 -10.24607
 Alpha  occ. eigenvalues --  -10.24441 -10.24409 -10.24308 -10.24258 -10.24178
 Alpha  occ. eigenvalues --  -10.24143 -10.24129 -10.24126 -10.24124 -10.24072
 Alpha  occ. eigenvalues --  -10.24026 -10.23990 -10.23971 -10.23897 -10.23827
 Alpha  occ. eigenvalues --  -10.23816 -10.23748 -10.23704  -8.21456  -6.16413
 Alpha  occ. eigenvalues --   -6.16382  -6.16308  -1.16576  -1.06967  -1.06132
 Alpha  occ. eigenvalues --   -1.05489  -1.04245  -0.95882  -0.94050  -0.91641
 Alpha  occ. eigenvalues --   -0.90972  -0.90772  -0.90727  -0.90531  -0.90154
 Alpha  occ. eigenvalues --   -0.87922  -0.87790  -0.86551  -0.86395  -0.86314
 Alpha  occ. eigenvalues --   -0.86040  -0.84898  -0.84243  -0.83520  -0.82822
 Alpha  occ. eigenvalues --   -0.82472  -0.82061  -0.81778  -0.79550  -0.79379
 Alpha  occ. eigenvalues --   -0.78924  -0.78025  -0.77208  -0.77009  -0.76966
 Alpha  occ. eigenvalues --   -0.76836  -0.76653  -0.74248  -0.73708  -0.73672
 Alpha  occ. eigenvalues --   -0.73630  -0.73444  -0.73426  -0.73380  -0.73279
 Alpha  occ. eigenvalues --   -0.73218  -0.73194  -0.73133  -0.73057  -0.72996
 Alpha  occ. eigenvalues --   -0.71326  -0.70953  -0.69256  -0.68450  -0.67940
 Alpha  occ. eigenvalues --   -0.67397  -0.66727  -0.66523  -0.66337  -0.66193
 Alpha  occ. eigenvalues --   -0.64583  -0.63436  -0.63353  -0.62772  -0.62513
 Alpha  occ. eigenvalues --   -0.62035  -0.61168  -0.60256  -0.60070  -0.59977
 Alpha  occ. eigenvalues --   -0.59164  -0.59005  -0.58734  -0.58427  -0.57962
 Alpha  occ. eigenvalues --   -0.57630  -0.56538  -0.56161  -0.56087  -0.55932
 Alpha  occ. eigenvalues --   -0.55660  -0.53993  -0.52929  -0.52724  -0.52637
 Alpha  occ. eigenvalues --   -0.52594  -0.51791  -0.51457  -0.51275  -0.51142
 Alpha  occ. eigenvalues --   -0.51085  -0.50991  -0.50705  -0.50076  -0.49838
 Alpha  occ. eigenvalues --   -0.49657  -0.49579  -0.49481  -0.49415  -0.49117
 Alpha  occ. eigenvalues --   -0.48877  -0.48761  -0.48467  -0.48373  -0.48346
 Alpha  occ. eigenvalues --   -0.48178  -0.48104  -0.47984  -0.47822  -0.47719
 Alpha  occ. eigenvalues --   -0.47577  -0.47287  -0.46966  -0.46902  -0.46706
 Alpha  occ. eigenvalues --   -0.46584  -0.46334  -0.46208  -0.46102  -0.46018
 Alpha  occ. eigenvalues --   -0.45901  -0.45859  -0.45453  -0.45429  -0.45051
 Alpha  occ. eigenvalues --   -0.44646  -0.44320  -0.44034  -0.43988  -0.43666
 Alpha  occ. eigenvalues --   -0.43646  -0.43591  -0.43552  -0.43416  -0.43281
 Alpha  occ. eigenvalues --   -0.43179  -0.43123  -0.42757  -0.42315  -0.42072
 Alpha  occ. eigenvalues --   -0.41995  -0.41978  -0.41829  -0.41732  -0.41585
 Alpha  occ. eigenvalues --   -0.41511  -0.40962  -0.40851  -0.40806  -0.40625
 Alpha  occ. eigenvalues --   -0.40545  -0.40449  -0.40017  -0.39866  -0.39826
 Alpha  occ. eigenvalues --   -0.39586  -0.39461  -0.39201  -0.39047  -0.38742
 Alpha  occ. eigenvalues --   -0.38637  -0.38546  -0.38047  -0.37822  -0.37678
 Alpha  occ. eigenvalues --   -0.37185  -0.37125  -0.36927  -0.36740  -0.36626
 Alpha  occ. eigenvalues --   -0.36572  -0.36508  -0.36418  -0.36348  -0.36232
 Alpha  occ. eigenvalues --   -0.36008  -0.35809  -0.35689  -0.35632  -0.35584
 Alpha  occ. eigenvalues --   -0.35509  -0.35419  -0.35321  -0.35269  -0.35037
 Alpha  occ. eigenvalues --   -0.34703  -0.33943  -0.33757  -0.32613  -0.32270
 Alpha  occ. eigenvalues --   -0.32007  -0.31541  -0.31217  -0.29135  -0.28695
 Alpha  occ. eigenvalues --   -0.27532  -0.25696  -0.25230  -0.24759  -0.24263
 Alpha  occ. eigenvalues --   -0.24032  -0.22683
 Alpha virt. eigenvalues --   -0.05101  -0.00073   0.00880   0.01643   0.02032
 Alpha virt. eigenvalues --    0.02244   0.02931   0.04837   0.05597   0.06183
 Alpha virt. eigenvalues --    0.07010   0.07719   0.08356   0.09128   0.09376

 Mulliken charges:
               1
     1  C    0.318637
     2  C    0.326682
     3  C   -0.109552
     4  C    0.026409
     5  C   -0.154416
     6  C    0.044505
     7  C   -0.189114
     8  H    0.116846
     9  C   -0.209012
    10  C   -0.184926
    11  H    0.121728
    12  C   -0.207227
    13  C    0.116777
    14  H    0.119116
    15  H    0.118705
    16  C    0.119634
    17  H    0.117752
    18  H    0.124412
    19  C    0.176516
    20  C    0.215778
    21  C   -0.117712
    22  C   -0.229882
    23  C   -0.116730
    24  C    0.192409
    25  H    0.210121
    26  H    0.209466
    27  C   -0.066397
    28  C   -0.067833
    29  N   -0.709928
    30  C   -0.195281
    31  C   -0.126585
    32  C   -0.120986
    33  C   -0.138341
    34  H    0.185000
    35  C   -0.136515
    36  H    0.182628
    37  C   -0.127281
    38  H    0.157731
    39  H    0.158043
    40  H    0.155736
    41  O   -0.569141
    42  O   -0.572732
    43  C   -0.368002
    44  H    0.119234
    45  H    0.121738
    46  H    0.139284
    47  C   -0.361337
    48  H    0.118884
    49  H    0.132662
    50  H    0.123384
    51  C   -0.390383
    52  H    0.129630
    53  H    0.134067
    54  H    0.123230
    55  C   -0.385034
    56  H    0.124963
    57  H    0.129449
    58  H    0.125314
    59  C   -0.369803
    60  H    0.125155
    61  H    0.119912
    62  H    0.142389
    63  C   -0.364614
    64  H    0.120947
    65  H    0.128073
    66  H    0.131453
    67  S    1.190906
    68  N   -0.729069
    69  C    0.304782
    70  C    0.299422
    71  C   -0.146667
    72  C    0.020858
    73  C   -0.183281
    74  C    0.036100
    75  C   -0.170469
    76  H    0.133312
    77  C   -0.197898
    78  C   -0.180089
    79  H    0.139951
    80  C   -0.192232
    81  C    0.125648
    82  H    0.119738
    83  H    0.122367
    84  C    0.118719
    85  H    0.122735
    86  H    0.125078
    87  C   -0.073829
    88  C   -0.068728
    89  C   -0.363690
    90  C   -0.368467
    91  C   -0.382890
    92  C   -0.365809
    93  C   -0.363309
    94  C   -0.385389
    95  H    0.120870
    96  H    0.122108
    97  H    0.134716
    98  H    0.130514
    99  H    0.137436
   100  H    0.119688
   101  H    0.132090
   102  H    0.129538
   103  H    0.124617
   104  H    0.123588
   105  H    0.125790
   106  H    0.133505
   107  H    0.124022
   108  H    0.122715
   109  H    0.136568
   110  H    0.128032
   111  H    0.132152
   112  H    0.126805
   113  N   -0.756985
   114  C    0.316176
   115  C    0.322052
   116  C   -0.135189
   117  C    0.020763
   118  C   -0.157950
   119  C    0.018951
   120  C   -0.183522
   121  H    0.117447
   122  C   -0.198653
   123  C   -0.173343
   124  H    0.135178
   125  C   -0.196154
   126  C    0.121026
   127  H    0.114414
   128  H    0.124078
   129  C    0.122501
   130  H    0.120865
   131  H    0.123975
   132  C   -0.067217
   133  C   -0.067731
   134  C   -0.370025
   135  C   -0.361594
   136  C   -0.385670
   137  C   -0.386631
   138  C   -0.369550
   139  C   -0.363046
   140  H    0.121793
   141  H    0.123860
   142  H    0.141738
   143  H    0.134035
   144  H    0.125007
   145  H    0.122187
   146  H    0.129633
   147  H    0.127041
   148  H    0.126488
   149  H    0.129710
   150  H    0.131113
   151  H    0.125753
   152  H    0.123545
   153  H    0.120932
   154  H    0.144567
   155  H    0.122881
   156  H    0.135005
   157  H    0.122354
 Sum of Mulliken charges =  -0.00000

 Dipole moment (field-independent basis, Debye):
    X=             -0.4992    Y=             -0.5426    Z=              5.0116  Tot=              5.0655
 Quadrupole moment (field-independent basis, Debye-Ang):
   XX=           -436.0893   YY=           -456.2091   ZZ=           -490.7187
   XY=            -13.6053   XZ=            -19.7761   YZ=             20.8769

 Normal termination of Gaussian 16 at Sun Sep 22 20:51:33 2024.
