 Gaussian 16, Revision C.01,
 Gaussian 16:  ES64L-G16RevC.01  3-Jul-2019

 ----------------------------------------------------------------------
 #p opt wB97XD/6-31G** iop(3/107=0136000000,3/108=0136000000) TDA=(sing
 lets, nstates=4, root=2)
 ----------------------------------------------------------------------

 ------------------------------------------------------------
 Tuning input file generated by xtune with parameters: w01360
 ------------------------------------------------------------
 Symbolic Z-matrix:
 Charge =  0 Multiplicity = 1

 SCF Done:  E(RwB97XD) =  -2044.02676988     A.U. after   16 cycles
 SCF Done:  E(RwB97XD) =  -2044.02031504     A.U. after   14 cycles
 SCF Done:  E(RwB97XD) =  -2044.00339010     A.U. after   16 cycles
 SCF Done:  E(RwB97XD) =  -2044.00825984     A.U. after   14 cycles
 SCF Done:  E(RwB97XD) =  -2044.00605851     A.U. after   14 cycles
 SCF Done:  E(RwB97XD) =  -2044.00777410     A.U. after   14 cycles
 SCF Done:  E(RwB97XD) =  -2044.00992471     A.U. after   14 cycles
 SCF Done:  E(RwB97XD) =  -2044.00628178     A.U. after   14 cycles
 SCF Done:  E(RwB97XD) =  -2044.00849680     A.U. after   14 cycles
 SCF Done:  E(RwB97XD) =  -2044.00765758     A.U. after   12 cycles
 SCF Done:  E(RwB97XD) =  -2044.00582075     A.U. after   12 cycles
 SCF Done:  E(RwB97XD) =  -2044.00583940     A.U. after    7 cycles
 SCF Done:  E(RwB97XD) =  -2044.00521026     A.U. after   12 cycles
 SCF Done:  E(RwB97XD) =  -2044.00190117     A.U. after   14 cycles
 SCF Done:  E(RwB97XD) =  -2044.00484049     A.U. after   13 cycles
 SCF Done:  E(RwB97XD) =  -2044.00484648     A.U. after    9 cycles
 SCF Done:  E(RwB97XD) =  -2044.00397654     A.U. after   12 cycles
 SCF Done:  E(RwB97XD) =  -2044.00445049     A.U. after   11 cycles
 SCF Done:  E(RwB97XD) =  -2044.00429180     A.U. after   11 cycles
 SCF Done:  E(RwB97XD) =  -2044.00438928     A.U. after    8 cycles

 Excitation energies and oscillator strengths:

 Excited State   1:      Singlet-A      3.3406 eV  371.14 nm  f=0.0051  <S**2>=0.000
     141 ->144        -0.66918
     142 ->144        -0.11555

 Excited State   2:      Singlet-A      2.9230 eV  424.17 nm  f=0.0047  <S**2>=0.000
     143 ->144         0.68282
 This state for optimization and/or second-order correction.
 Total Energy, E(CIS/TDA) =  -2043.89697112
 Copying the excited state density for this state as the 1-particle RhoCI density.

 Excited State   3:      Singlet-A      3.6424 eV  340.39 nm  f=0.0001  <S**2>=0.000
     141 ->144        -0.11337
     142 ->144         0.67454

 Excited State   4:      Singlet-A      3.8830 eV  319.30 nm  f=0.0020  <S**2>=0.000
     140 ->144         0.68797

 Optimization completed.
    -- Stationary point found.

                         Standard orientation:
 ---------------------------------------------------------------------
 Center     Atomic      Atomic             Coordinates (Angstroms)
 Number     Number       Type             X           Y           Z
 ---------------------------------------------------------------------
      1          6           0        0.070469   -0.716322    1.069195
      2          6           0        0.417836   -0.448669   -0.297755
      3          6           0        1.639682   -0.773662   -0.811904
      4          6           0        2.572803   -1.460017    0.012373
      5          6           0        2.226148   -1.772655    1.370635
      6          6           0        0.999504   -1.432736    1.877778
      7         16           0        4.196951   -1.674237   -0.551724
      8          8           0        4.180165   -1.702698   -2.021563
      9          1           0        1.896251   -0.523564   -1.835250
     10          1           0        2.944827   -2.306752    1.981027
     11          1           0        0.728269   -1.701977    2.893382
     12          7           0       -0.566227    0.268658   -1.067472
     13          6           0       -1.690040   -0.281122   -1.660993
     14          6           0       -0.723384    1.640706   -1.013782
     15          6           0       -1.941236   -1.620102   -1.961810
     16          6           0       -2.622328    0.746346   -1.945044
     17          6           0        0.173238    2.590934   -0.520938
     18          6           0       -1.994041    1.992334   -1.532317
     19          6           0       -3.179774   -1.926473   -2.521437
     20          1           0       -1.187763   -2.376917   -1.783210
     21          6           0       -3.850143    0.415169   -2.504977
     22          6           0       -0.228836    3.925361   -0.557984
     23          1           0        1.143396    2.290300   -0.142894
     24          6           0       -2.376712    3.327018   -1.543532
     25          6           0       -4.125184   -0.928333   -2.780129
     26          1           0       -3.411795   -2.958221   -2.760284
     27          1           0       -4.585895    1.182201   -2.723154
     28          6           0       -1.485218    4.288805   -1.054553
     29          1           0        0.445408    4.692858   -0.193982
     30          1           0       -3.347693    3.623874   -1.925671
     31          1           0       -5.080660   -1.198822   -3.216222
     32          1           0       -1.771850    5.334809   -1.066056
     33          7           0       -1.320574   -0.609136    1.403447
     34          6           0       -2.266311   -1.594093    1.179389
     35          6           0       -1.980812    0.561161    1.731854
     36          6           0       -2.044547   -2.933738    0.855790
     37          6           0       -3.566781   -1.046941    1.306599
     38          6           0       -1.423769    1.797200    2.063867
     39          6           0       -3.381024    0.356934    1.652795
     40          6           0       -3.169710   -3.736897    0.660550
     41          1           0       -1.036254   -3.321270    0.773736
     42          6           0       -4.667737   -1.858889    1.090194
     43          6           0       -2.303755    2.854248    2.287220
     44          1           0       -0.350766    1.909464    2.147774
     45          6           0       -4.236948    1.424345    1.875839
     46          6           0       -4.457862   -3.208972    0.768566
     47          1           0       -3.038323   -4.784981    0.416081
     48          1           0       -5.675855   -1.465911    1.167833
     49          6           0       -3.686429    2.675989    2.185413
     50          1           0       -1.906533    3.831480    2.536324
     51          1           0       -5.312464    1.300857    1.805756
     52          1           0       -5.314023   -3.853984    0.603988
     53          1           0       -4.346743    3.518863    2.357735
     54          8           0        4.827772   -2.750948    0.223234
     55          6           0        5.062298   -0.159714   -0.098602
     56          6           0        5.069685    0.917629   -0.985082
     57          6           0        5.648554   -0.053085    1.162625
     58          6           0        5.666054    2.115653   -0.599068
     59          1           0        4.631848    0.798529   -1.969949
     60          6           0        6.242472    1.148874    1.539910
     61          1           0        5.651256   -0.912642    1.823405
     62          6           0        6.248597    2.234383    0.663333
     63          1           0        5.685642    2.954102   -1.288124
     64          1           0        6.708243    1.235911    2.516350
     65          1           0        6.715803    3.168119    0.959675
 ---------------------------------------------------------------------

 The electronic state is 1-A.
 Alpha  occ. eigenvalues --  -89.24219 -19.24124 -19.24097 -14.47852 -14.47450
 Alpha  occ. eigenvalues --  -10.36383 -10.35527 -10.34031 -10.32656 -10.32435
 Alpha  occ. eigenvalues --  -10.32107 -10.31944 -10.31108 -10.30901 -10.30834
 Alpha  occ. eigenvalues --  -10.30685 -10.30491 -10.30439 -10.30218 -10.30005
 Alpha  occ. eigenvalues --  -10.29977 -10.27434 -10.27375 -10.27356 -10.27345
 Alpha  occ. eigenvalues --  -10.27333 -10.27280 -10.27268 -10.27263 -10.27225
 Alpha  occ. eigenvalues --  -10.27142 -10.27139 -10.27113 -10.26995 -10.26982
 Alpha  occ. eigenvalues --  -10.26960 -10.26807 -10.26613 -10.26604 -10.26437
 Alpha  occ. eigenvalues --  -10.26274  -8.22686  -6.17645  -6.17612  -6.17540
 Alpha  occ. eigenvalues --   -1.17851  -1.08364  -1.07328  -1.06089  -0.97178
 Alpha  occ. eigenvalues --   -0.95306  -0.92219  -0.91717  -0.91560  -0.91134
 Alpha  occ. eigenvalues --   -0.87650  -0.86904  -0.85375  -0.84088  -0.84021
 Alpha  occ. eigenvalues --   -0.83497  -0.82034  -0.81496  -0.79933  -0.78796
 Alpha  occ. eigenvalues --   -0.78548  -0.78326  -0.75977  -0.72468  -0.71977
 Alpha  occ. eigenvalues --   -0.69970  -0.69596  -0.69321  -0.67369  -0.67152
 Alpha  occ. eigenvalues --   -0.66900  -0.65802  -0.64136  -0.63951  -0.63665
 Alpha  occ. eigenvalues --   -0.62086  -0.60754  -0.58976  -0.58457  -0.58055
 Alpha  occ. eigenvalues --   -0.57745  -0.57601  -0.56506  -0.55770  -0.55020
 Alpha  occ. eigenvalues --   -0.54048  -0.53606  -0.52507  -0.52291  -0.51577
 Alpha  occ. eigenvalues --   -0.51527  -0.51141  -0.50990  -0.50527  -0.50461
 Alpha  occ. eigenvalues --   -0.50036  -0.49623  -0.49312  -0.49079  -0.48888
 Alpha  occ. eigenvalues --   -0.47850  -0.47757  -0.47411  -0.47286  -0.46809
 Alpha  occ. eigenvalues --   -0.46489  -0.45251  -0.45061  -0.44458  -0.42721
 Alpha  occ. eigenvalues --   -0.42530  -0.42177  -0.42042  -0.41951  -0.41837
 Alpha  occ. eigenvalues --   -0.40056  -0.39810  -0.39567  -0.39459  -0.39129
 Alpha  occ. eigenvalues --   -0.38945  -0.38838  -0.38145  -0.37557  -0.36551
 Alpha  occ. eigenvalues --   -0.35850  -0.35688  -0.35199  -0.34314  -0.33175
 Alpha  occ. eigenvalues --   -0.32708  -0.32541  -0.31578  -0.29315  -0.26866
 Alpha  occ. eigenvalues --   -0.26197  -0.26078  -0.24448
 Alpha virt. eigenvalues --   -0.03237   0.01164   0.02196   0.02325   0.03362
 Alpha virt. eigenvalues --    0.03599   0.05871   0.06702   0.08086   0.08856
 Alpha virt. eigenvalues --    0.10046   0.11125   0.11448   0.12833   0.14413

 Mulliken charges:
               1
     1  C    0.197938
     2  C    0.199837
     3  C   -0.108656
     4  C   -0.205813
     5  C   -0.108017
     6  C   -0.141144
     7  S    1.165958
     8  O   -0.570011
     9  H    0.204114
    10  H    0.186230
    11  H    0.178554
    12  N   -0.714153
    13  C    0.294185
    14  C    0.301113
    15  C   -0.134593
    16  C    0.033762
    17  C   -0.162688
    18  C    0.041603
    19  C   -0.129012
    20  H    0.127764
    21  C   -0.168760
    22  C   -0.139731
    23  H    0.126203
    24  C   -0.160253
    25  C   -0.147868
    26  H    0.128423
    27  H    0.130558
    28  C   -0.148780
    29  H    0.124636
    30  H    0.133470
    31  H    0.123399
    32  H    0.123295
    33  N   -0.708921
    34  C    0.303778
    35  C    0.294919
    36  C   -0.157798
    37  C    0.045388
    38  C   -0.133393
    39  C    0.036460
    40  C   -0.139723
    41  H    0.128490
    42  C   -0.166046
    43  C   -0.129197
    44  H    0.121579
    45  C   -0.170378
    46  C   -0.147928
    47  H    0.128909
    48  H    0.134093
    49  C   -0.149197
    50  H    0.127129
    51  H    0.131637
    52  H    0.124421
    53  H    0.123026
    54  O   -0.568756
    55  C   -0.190611
    56  C   -0.116394
    57  C   -0.114707
    58  C   -0.132175
    59  H    0.176332
    60  C   -0.131499
    61  H    0.171238
    62  C   -0.121555
    63  H    0.151276
    64  H    0.149236
    65  H    0.148806
 Sum of Mulliken charges =  -0.00000

 Dipole moment (field-independent basis, Debye):
    X=             -0.3179    Y=              3.6260    Z=              3.0242  Tot=              4.7323
 Quadrupole moment (field-independent basis, Debye-Ang):
   XX=           -228.4660   YY=           -228.3303   ZZ=           -241.8875
   XY=             25.0119   XZ=             19.3536   YZ=             -2.5770

 Normal termination of Gaussian 16 at Sat Aug 10 05:00:24 2024.
