 Gaussian 16, Revision C.01,
 Gaussian 16:  ES64L-G16RevC.01  3-Jul-2019

 ----------------------------------------------------------------------
 #p opt=Restart wb97xd/6-31G** iop(3/107=0105700000,3/108=0105700000) T
 DA=(singlets, nstates=4, root=1)
 ----------------------------------------------------------------------

 SCF Done:  E(RwB97XD) =  -3503.74444938     A.U. after    6 cycles
 SCF Done:  E(RwB97XD) =  -3503.74440173     A.U. after    7 cycles
 SCF Done:  E(RwB97XD) =  -3503.74441877     A.U. after    7 cycles
 SCF Done:  E(RwB97XD) =  -3503.74442063     A.U. after    6 cycles
 SCF Done:  E(RwB97XD) =  -3503.74442266     A.U. after    5 cycles
 SCF Done:  E(RwB97XD) =  -3503.74441749     A.U. after    5 cycles
 SCF Done:  E(RwB97XD) =  -3503.74442210     A.U. after    5 cycles

 Excitation energies and oscillator strengths:

 Excited State   1:      Singlet-A      2.1468 eV  577.53 nm  f=0.0070  <S**2>=0.000
     282 -> 283        0.69024
 This state for optimization and/or second-order correction.
 Total Energy, E(CIS/TDA) =  -3503.66552797
 Copying the excited state density for this state as the 1-particle RhoCI density.

 Excited State   2:      Singlet-A      2.5448 eV  487.21 nm  f=0.0079  <S**2>=0.000
     281 -> 283       -0.68086

 Excited State   3:      Singlet-A      2.6601 eV  466.10 nm  f=0.0049  <S**2>=0.000
     280 -> 283        0.68679

 Excited State   4:      Singlet-A      2.9183 eV  424.85 nm  f=0.0010  <S**2>=0.000
     279 -> 283        0.68353

 Optimization completed.
    -- Stationary point found.

                         Standard orientation:
 ---------------------------------------------------------------------
 Center     Atomic      Atomic             Coordinates (Angstroms)
 Number     Number       Type             X           Y           Z
 ---------------------------------------------------------------------
      1          6           0        1.090774   -0.644383    0.399855
      2          6           0       -0.750511    0.555579    0.839154
      3          6           0        2.173980   -1.268835   -0.221273
      4          6           0        0.931526   -0.661523    1.812113
      5          6           0       -1.876340    1.367116    0.723828
      6          6           0       -0.278055    0.107726    2.094306
      7          6           0        3.098984   -1.918048    0.595225
      8          1           0        2.302183   -1.221392   -1.292692
      9          6           0        1.864104   -1.306960    2.592860
     10          6           0       -2.551401    1.700881    1.899616
     11          1           0       -2.201891    1.738848   -0.238102
     12          6           0       -0.964451    0.451910    3.240455
     13          6           0        2.976460   -1.952037    1.991553
     14          1           0        3.943489   -2.392437    0.115505
     15          1           0        1.752995   -1.309393    3.671374
     16          6           0       -2.130791    1.254983    3.159614
     17          1           0       -3.429260    2.325836    1.810359
     18          1           0       -0.608789    0.107178    4.205273
     19          6           0       -0.117940    0.384496   -1.565980
     20          6           0       -1.305987   -0.126864   -2.171991
     21          6           0       -1.956660    0.558323   -3.162864
     22          6           0       -1.470101    1.840341   -3.563932
     23          6           0       -0.268128    2.355043   -3.006089
     24          6           0        0.391486    1.652387   -2.034066
     25          1           0       -2.821420    0.128081   -3.654269
     26          1           0        0.142390    3.287413   -3.377600
     27          6           0        4.018933   -2.623943    2.894736
     28          6           0       -2.884456    1.605422    4.450792
     29          7           0        0.069355    0.076834   -0.168475
     30          6           0       -3.582714    3.595771   -3.140123
     31          6           0       -4.757589    2.931017   -2.782482
     32          6           0       -3.152551    4.721537   -2.434970
     33          6           0       -5.503219    3.396203   -1.699535
     34          1           0       -5.084786    2.076714   -3.364134
     35          6           0       -3.905420    5.179803   -1.355323
     36          1           0       -2.248441    5.232920   -2.745110
     37          6           0       -5.076670    4.515962   -0.982707
     38          1           0       -6.423876    2.891964   -1.424497
     39          1           0       -3.582749    6.060790   -0.810289
     40          1           0       -5.662670    4.879117   -0.144744
     41          8           0       -1.750144    4.019959   -4.989347
     42          8           0       -3.417237    2.102418   -5.298054
     43          6           0        3.325929   -3.658090    3.812054
     44          1           0        4.068032   -4.143850    4.453041
     45          1           0        2.579884   -3.198752    4.465858
     46          1           0        2.825882   -4.431467    3.222921
     47          6           0        4.694633   -1.532941    3.759842
     48          1           0        5.452930   -1.982920    4.408394
     49          1           0        5.182293   -0.784079    3.129393
     50          1           0        3.974027   -1.015199    4.399084
     51          6           0        5.110881   -3.352093    2.091109
     52          1           0        4.690412   -4.133416    1.450660
     53          1           0        5.686695   -2.663348    1.467041
     54          1           0        5.811878   -3.831850    2.779800
     55          6           0       -4.140153    2.454901    4.184781
     56          1           0       -3.893245    3.414851    3.721316
     57          1           0       -4.855460    1.932684    3.542258
     58          1           0       -4.643413    2.668741    5.131854
     59          6           0       -3.326759    0.298162    5.148745
     60          1           0       -2.475260   -0.329422    5.425295
     61          1           0       -3.877888    0.529578    6.065615
     62          1           0       -3.978245   -0.288536    4.495951
     63          6           0       -1.949070    2.403331    5.388237
     64          1           0       -2.471208    2.653170    6.317199
     65          1           0       -1.053022    1.836396    5.654337
     66          1           0       -1.628763    3.336207    4.916081
     67         16           0       -2.535521    2.906422   -4.441237
     68          7           0        1.657078    2.077452   -1.518518
     69          6           0        1.860975    2.673321   -0.274510
     70          6           0        2.853093    1.474694   -1.897479
     71          6           0        0.962582    3.379879    0.524319
     72          6           0        3.197576    2.478852    0.133188
     73          6           0        3.132595    0.722603   -3.036025
     74          6           0        3.839910    1.708989   -0.913136
     75          6           0        1.420838    3.857022    1.745240
     76          1           0       -0.058125    3.548654    0.201496
     77          6           0        3.632975    2.983916    1.362747
     78          6           0        4.420295    0.210345   -3.175314
     79          1           0        2.373217    0.548892   -3.789901
     80          6           0        5.122967    1.189001   -1.086952
     81          6           0        2.749264    3.672341    2.193901
     82          1           0        0.718759    4.397258    2.372315
     83          1           0        4.662940    2.823430    1.658517
     84          6           0        5.435662    0.429459   -2.220159
     85          1           0        4.635741   -0.369638   -4.064363
     86          1           0        5.876789    1.379087   -0.328963
     87          6           0        3.163703    4.222573    3.569701
     88          6           0        6.862598   -0.124819   -2.391175
     89          6           0        2.937356    5.750716    3.610115
     90          6           0        2.310512    3.545968    4.666531
     91          6           0        4.645967    3.951653    3.884358
     92          6           0        7.199640   -1.060577   -1.208349
     93          6           0        7.868334    1.048584   -2.419122
     94          6           0        7.030079   -0.927640   -3.694145
     95          1           0        1.887950    6.011654    3.447922
     96          1           0        3.233335    6.156725    4.583492
     97          1           0        3.528103    6.250315    2.836862
     98          1           0        1.244336    3.740769    4.525892
     99          1           0        2.456226    2.461414    4.654420
    100          1           0        2.590462    3.919056    5.657784
    101          1           0        4.866480    2.879740    3.909464
    102          1           0        5.308567    4.423223    3.152129
    103          1           0        4.895761    4.361926    4.867573
    104          1           0        8.218558   -1.450889   -1.304189
    105          1           0        7.131697   -0.541379   -0.248219
    106          1           0        6.512257   -1.911716   -1.181713
    107          1           0        7.842783    1.627351   -1.491727
    108          1           0        8.889790    0.675501   -2.550838
    109          1           0        7.643999    1.731083   -3.243861
    110          1           0        6.362011   -1.794101   -3.727894
    111          1           0        6.840333   -0.311521   -4.578180
    112          1           0        8.056081   -1.300856   -3.767498
    113          7           0       -1.791355   -1.374367   -1.676785
    114          6           0       -2.960812   -1.559086   -0.948508
    115          6           0       -1.060126   -2.558288   -1.635942
    116          6           0       -4.009754   -0.673924   -0.707718
    117          6           0       -2.976091   -2.870121   -0.413361
    118          6           0        0.147611   -2.871770   -2.252216
    119          6           0       -1.751216   -3.511172   -0.854955
    120          6           0       -5.066302   -1.116464    0.085301
    121          1           0       -4.016510    0.319121   -1.140011
    122          6           0       -4.050670   -3.282929    0.369008
    123          6           0        0.673336   -4.146167   -2.042318
    124          1           0        0.654008   -2.152880   -2.884780
    125          6           0       -1.200427   -4.776574   -0.665802
    126          6           0       -5.116059   -2.411177    0.636380
    127          1           0       -5.879140   -0.423864    0.265698
    128          1           0       -4.055745   -4.292378    0.768077
    129          6           0        0.029232   -5.113749   -1.248913
    130          1           0        1.614393   -4.384078   -2.522759
    131          1           0       -1.736630   -5.501104   -0.060771
    132          6           0       -6.301629   -2.903645    1.485684
    133          6           0        0.622806   -6.513496   -1.007979
    134          6           0       -5.791200   -3.402613    2.856434
    135          6           0       -7.005127   -4.065514    0.747297
    136          6           0       -7.340504   -1.796353    1.740233
    137          6           0        1.975007   -6.707697   -1.717857
    138          6           0        0.845675   -6.718801    0.507724
    139          6           0       -0.354962   -7.587689   -1.535705
    140          1           0       -6.628171   -3.749764    3.471561
    141          1           0       -5.090532   -4.235617    2.753818
    142          1           0       -5.279521   -2.601333    3.397001
    143          1           0       -7.374212   -3.738061   -0.228955
    144          1           0       -6.326696   -4.907121    0.581722
    145          1           0       -7.856690   -4.432037    1.330731
    146          1           0       -6.902405   -0.942351    2.266786
    147          1           0       -7.788073   -1.435207    0.809352
    148          1           0       -8.151117   -2.187658    2.362230
    149          1           0        1.883098   -6.607401   -2.803626
    150          1           0        2.724784   -5.991328   -1.367094
    151          1           0        2.357802   -7.711884   -1.512190
    152          1           0       -0.089377   -6.645253    1.069908
    153          1           0        1.273954   -7.707955    0.702466
    154          1           0        1.532229   -5.963895    0.901925
    155          1           0       -1.322938   -7.539940   -1.029254
    156          1           0       -0.532606   -7.457795   -2.607190
    157          1           0        0.054605   -8.590791   -1.375260
 ---------------------------------------------------------------------

 The electronic state is 1-A.
 Alpha  occ. eigenvalues --  -89.23052 -19.23074 -19.22994 -14.46700 -14.46256
 Alpha  occ. eigenvalues --  -14.46202 -10.34696 -10.34539 -10.34520 -10.32995
 Alpha  occ. eigenvalues --  -10.31250 -10.31011 -10.30961 -10.29692 -10.29549
 Alpha  occ. eigenvalues --  -10.29508 -10.29427 -10.29413 -10.29322 -10.29267
 Alpha  occ. eigenvalues --  -10.29173 -10.28996 -10.28950 -10.28671 -10.27381
 Alpha  occ. eigenvalues --  -10.27353 -10.27259 -10.27153 -10.27053 -10.26751
 Alpha  occ. eigenvalues --  -10.26101 -10.26061 -10.26052 -10.26052 -10.25999
 Alpha  occ. eigenvalues --  -10.25998 -10.25958 -10.25940 -10.25835 -10.25775
 Alpha  occ. eigenvalues --  -10.25740 -10.25709 -10.25704 -10.25702 -10.25697
 Alpha  occ. eigenvalues --  -10.25675 -10.25672 -10.25668 -10.25639 -10.25619
 Alpha  occ. eigenvalues --  -10.25522 -10.25467 -10.25373 -10.25332 -10.25331
 Alpha  occ. eigenvalues --  -10.25277 -10.25093 -10.24903 -10.24795 -10.24607
 Alpha  occ. eigenvalues --  -10.24441 -10.24409 -10.24308 -10.24258 -10.24178
 Alpha  occ. eigenvalues --  -10.24143 -10.24129 -10.24126 -10.24124 -10.24072
 Alpha  occ. eigenvalues --  -10.24026 -10.23990 -10.23971 -10.23897 -10.23827
 Alpha  occ. eigenvalues --  -10.23816 -10.23748 -10.23704  -8.21456  -6.16413
 Alpha  occ. eigenvalues --   -6.16382  -6.16308  -1.16576  -1.06967  -1.06132
 Alpha  occ. eigenvalues --   -1.05489  -1.04245  -0.95882  -0.94050  -0.91641
 Alpha  occ. eigenvalues --   -0.90972  -0.90772  -0.90727  -0.90531  -0.90154
 Alpha  occ. eigenvalues --   -0.87922  -0.87790  -0.86551  -0.86395  -0.86314
 Alpha  occ. eigenvalues --   -0.86040  -0.84898  -0.84244  -0.83520  -0.82822
 Alpha  occ. eigenvalues --   -0.82472  -0.82061  -0.81778  -0.79550  -0.79379
 Alpha  occ. eigenvalues --   -0.78924  -0.78025  -0.77208  -0.77009  -0.76966
 Alpha  occ. eigenvalues --   -0.76836  -0.76653  -0.74248  -0.73708  -0.73672
 Alpha  occ. eigenvalues --   -0.73630  -0.73444  -0.73426  -0.73380  -0.73279
 Alpha  occ. eigenvalues --   -0.73218  -0.73194  -0.73133  -0.73057  -0.72996
 Alpha  occ. eigenvalues --   -0.71326  -0.70953  -0.69256  -0.68450  -0.67940
 Alpha  occ. eigenvalues --   -0.67397  -0.66727  -0.66523  -0.66337  -0.66193
 Alpha  occ. eigenvalues --   -0.64583  -0.63436  -0.63354  -0.62772  -0.62514
 Alpha  occ. eigenvalues --   -0.62035  -0.61168  -0.60256  -0.60070  -0.59977
 Alpha  occ. eigenvalues --   -0.59164  -0.59004  -0.58734  -0.58427  -0.57962
 Alpha  occ. eigenvalues --   -0.57630  -0.56538  -0.56161  -0.56087  -0.55932
 Alpha  occ. eigenvalues --   -0.55660  -0.53993  -0.52929  -0.52723  -0.52637
 Alpha  occ. eigenvalues --   -0.52594  -0.51791  -0.51457  -0.51275  -0.51142
 Alpha  occ. eigenvalues --   -0.51085  -0.50991  -0.50705  -0.50076  -0.49838
 Alpha  occ. eigenvalues --   -0.49657  -0.49579  -0.49481  -0.49415  -0.49117
 Alpha  occ. eigenvalues --   -0.48877  -0.48761  -0.48467  -0.48373  -0.48346
 Alpha  occ. eigenvalues --   -0.48178  -0.48104  -0.47984  -0.47822  -0.47719
 Alpha  occ. eigenvalues --   -0.47577  -0.47287  -0.46965  -0.46902  -0.46706
 Alpha  occ. eigenvalues --   -0.46583  -0.46334  -0.46208  -0.46102  -0.46018
 Alpha  occ. eigenvalues --   -0.45901  -0.45859  -0.45453  -0.45429  -0.45051
 Alpha  occ. eigenvalues --   -0.44646  -0.44320  -0.44034  -0.43988  -0.43666
 Alpha  occ. eigenvalues --   -0.43646  -0.43591  -0.43552  -0.43416  -0.43281
 Alpha  occ. eigenvalues --   -0.43179  -0.43123  -0.42757  -0.42315  -0.42072
 Alpha  occ. eigenvalues --   -0.41995  -0.41978  -0.41830  -0.41732  -0.41585
 Alpha  occ. eigenvalues --   -0.41511  -0.40962  -0.40851  -0.40806  -0.40625
 Alpha  occ. eigenvalues --   -0.40545  -0.40449  -0.40017  -0.39866  -0.39826
 Alpha  occ. eigenvalues --   -0.39586  -0.39461  -0.39201  -0.39047  -0.38742
 Alpha  occ. eigenvalues --   -0.38638  -0.38546  -0.38047  -0.37822  -0.37678
 Alpha  occ. eigenvalues --   -0.37185  -0.37125  -0.36927  -0.36740  -0.36626
 Alpha  occ. eigenvalues --   -0.36572  -0.36508  -0.36418  -0.36348  -0.36232
 Alpha  occ. eigenvalues --   -0.36008  -0.35809  -0.35689  -0.35632  -0.35584
 Alpha  occ. eigenvalues --   -0.35509  -0.35419  -0.35321  -0.35269  -0.35037
 Alpha  occ. eigenvalues --   -0.34704  -0.33943  -0.33757  -0.32613  -0.32271
 Alpha  occ. eigenvalues --   -0.32007  -0.31541  -0.31217  -0.29135  -0.28695
 Alpha  occ. eigenvalues --   -0.27532  -0.25696  -0.25230  -0.24759  -0.24263
 Alpha  occ. eigenvalues --   -0.24031  -0.22683
 Alpha virt. eigenvalues --   -0.05101  -0.00073   0.00879   0.01643   0.02031
 Alpha virt. eigenvalues --    0.02244   0.02931   0.04837   0.05597   0.06183
 Alpha virt. eigenvalues --    0.07009   0.07719   0.08356   0.09129   0.09376

 Mulliken charges:
               1
     1  C    0.318637
     2  C    0.326690
     3  C   -0.109530
     4  C    0.026407
     5  C   -0.154405
     6  C    0.044504
     7  C   -0.189116
     8  H    0.116838
     9  C   -0.209013
    10  C   -0.184939
    11  H    0.121710
    12  C   -0.207230
    13  C    0.116778
    14  H    0.119112
    15  H    0.118704
    16  C    0.119637
    17  H    0.117761
    18  H    0.124412
    19  C    0.176496
    20  C    0.215779
    21  C   -0.117713
    22  C   -0.229889
    23  C   -0.116728
    24  C    0.192417
    25  H    0.210119
    26  H    0.209469
    27  C   -0.066397
    28  C   -0.067834
    29  N   -0.709921
    30  C   -0.195284
    31  C   -0.126584
    32  C   -0.120986
    33  C   -0.138340
    34  H    0.185004
    35  C   -0.136515
    36  H    0.182624
    37  C   -0.127282
    38  H    0.157732
    39  H    0.158044
    40  H    0.155737
    41  O   -0.569141
    42  O   -0.572728
    43  C   -0.368001
    44  H    0.119233
    45  H    0.121738
    46  H    0.139284
    47  C   -0.361331
    48  H    0.118883
    49  H    0.132659
    50  H    0.123381
    51  C   -0.390383
    52  H    0.129631
    53  H    0.134066
    54  H    0.123230
    55  C   -0.385033
    56  H    0.124959
    57  H    0.129447
    58  H    0.125315
    59  C   -0.369803
    60  H    0.125156
    61  H    0.119912
    62  H    0.142388
    63  C   -0.364612
    64  H    0.120945
    65  H    0.128072
    66  H    0.131455
    67  S    1.190909
    68  N   -0.729077
    69  C    0.304791
    70  C    0.299434
    71  C   -0.146666
    72  C    0.020852
    73  C   -0.183283
    74  C    0.036100
    75  C   -0.170469
    76  H    0.133312
    77  C   -0.197902
    78  C   -0.180089
    79  H    0.139949
    80  C   -0.192233
    81  C    0.125648
    82  H    0.119733
    83  H    0.122369
    84  C    0.118721
    85  H    0.122733
    86  H    0.125078
    87  C   -0.073831
    88  C   -0.068729
    89  C   -0.363689
    90  C   -0.368458
    91  C   -0.382882
    92  C   -0.365809
    93  C   -0.363308
    94  C   -0.385388
    95  H    0.120870
    96  H    0.122109
    97  H    0.134716
    98  H    0.130508
    99  H    0.137432
   100  H    0.119690
   101  H    0.132087
   102  H    0.129537
   103  H    0.124617
   104  H    0.123588
   105  H    0.125790
   106  H    0.133506
   107  H    0.124022
   108  H    0.122714
   109  H    0.136568
   110  H    0.128032
   111  H    0.132151
   112  H    0.126805
   113  N   -0.756976
   114  C    0.316169
   115  C    0.322054
   116  C   -0.135180
   117  C    0.020766
   118  C   -0.157963
   119  C    0.018951
   120  C   -0.183519
   121  H    0.117452
   122  C   -0.198652
   123  C   -0.173345
   124  H    0.135179
   125  C   -0.196153
   126  C    0.121026
   127  H    0.114415
   128  H    0.124078
   129  C    0.122504
   130  H    0.120865
   131  H    0.123976
   132  C   -0.067216
   133  C   -0.067732
   134  C   -0.370026
   135  C   -0.361594
   136  C   -0.385674
   137  C   -0.386630
   138  C   -0.369551
   139  C   -0.363046
   140  H    0.121792
   141  H    0.123859
   142  H    0.141739
   143  H    0.134035
   144  H    0.125006
   145  H    0.122187
   146  H    0.129634
   147  H    0.127042
   148  H    0.126488
   149  H    0.129712
   150  H    0.131108
   151  H    0.125754
   152  H    0.123547
   153  H    0.120932
   154  H    0.144567
   155  H    0.122880
   156  H    0.135006
   157  H    0.122354
 Sum of Mulliken charges =  -0.00000

 Dipole moment (field-independent basis, Debye):
    X=             -0.4987    Y=             -0.5419    Z=              5.0116  Tot=              5.0654
 Quadrupole moment (field-independent basis, Debye-Ang):
   XX=           -436.0907   YY=           -456.2046   ZZ=           -490.7266
   XY=            -13.6055   XZ=            -19.7758   YZ=             20.8708

 Normal termination of Gaussian 16 at Thu Sep 19 14:15:05 2024.
