 Gaussian 16, Revision C.01,
 Gaussian 16:  ES64L-G16RevC.01  3-Jul-2019

 ----------------------------------------------------------------------
 #p opt=Restart wB97XD/6-31G** iop(3/107=0136000000, 3/108=0136000000)
 TDA=(singlets, nstates=4, root=1)
 ----------------------------------------------------------------------

 SCF Done:  E(RwB97XD) =  -2044.00521667     A.U. after   12 cycles
 SCF Done:  E(RwB97XD) =  -2044.00403950     A.U. after   13 cycles
 SCF Done:  E(RwB97XD) =  -2044.00443333     A.U. after   12 cycles
 SCF Done:  E(RwB97XD) =  -2044.00525706     A.U. after   12 cycles
 SCF Done:  E(RwB97XD) =  -2044.00464089     A.U. after   12 cycles
 SCF Done:  E(RwB97XD) =  -2044.00449381     A.U. after   10 cycles
 SCF Done:  E(RwB97XD) =  -2044.00436171     A.U. after    9 cycles
 SCF Done:  E(RwB97XD) =  -2044.00440338     A.U. after    8 cycles
 SCF Done:  E(RwB97XD) =  -2044.00439299     A.U. after    6 cycles

 Excitation energies and oscillator strengths:

 Excited State   1:      Singlet-A      2.9231 eV  424.15 nm  f=0.0047  <S**2>=0.000
     143 ->144         0.68282
 This state for optimization and/or second-order correction.
 Total Energy, E(CIS/TDA) =  -2043.89697111
 Copying the excited state density for this state as the 1-particle RhoCI density.

 Excited State   2:      Singlet-A      3.3407 eV  371.14 nm  f=0.0051  <S**2>=0.000
     141 ->144        -0.66912
     142 ->144        -0.11588

 Excited State   3:      Singlet-A      3.6425 eV  340.39 nm  f=0.0001  <S**2>=0.000
     141 ->144         0.11369
     142 ->144        -0.67449

 Excited State   4:      Singlet-A      3.8831 eV  319.29 nm  f=0.0020  <S**2>=0.000
     140 ->144        -0.68798

 Optimization completed.
    -- Stationary point found.

                         Standard orientation:
 ---------------------------------------------------------------------
 Center     Atomic      Atomic             Coordinates (Angstroms)
 Number     Number       Type             X           Y           Z
 ---------------------------------------------------------------------
      1          6           0        0.070498   -0.716775    1.068910
      2          6           0        0.417828   -0.449123   -0.298061
      3          6           0        1.639635   -0.774234   -0.812220
      4          6           0        2.572713   -1.460681    0.012014
      5          6           0        2.226070   -1.773316    1.370289
      6          6           0        0.999463   -1.433291    1.877455
      7         16           0        4.196978   -1.674471   -0.551918
      8          8           0        4.180369   -1.702773   -2.021760
      9          1           0        1.896235   -0.524152   -1.835564
     10          1           0        2.944706   -2.307495    1.980656
     11          1           0        0.728224   -1.702518    2.893062
     12          7           0       -0.566144    0.268361   -1.067717
     13          6           0       -1.690158   -0.281209   -1.661113
     14          6           0       -0.723009    1.640427   -1.014070
     15          6           0       -1.941656   -1.620141   -1.961873
     16          6           0       -2.622228    0.746442   -1.945119
     17          6           0        0.173879    2.590511   -0.521385
     18          6           0       -1.993650    1.992306   -1.532487
     19          6           0       -3.180294   -1.926264   -2.521406
     20          1           0       -1.188333   -2.377114   -1.783298
     21          6           0       -3.850164    0.415512   -2.504972
     22          6           0       -0.227917    3.925004   -0.558456
     23          1           0        1.144021    2.289684   -0.143449
     24          6           0       -2.376029    3.327084   -1.543748
     25          6           0       -4.125512   -0.927921   -2.780075
     26          1           0       -3.412555   -2.957966   -2.760221
     27          1           0       -4.585754    1.182711   -2.723117
     28          6           0       -1.484289    4.288696   -1.054910
     29          1           0        0.446525    4.692388   -0.194581
     30          1           0       -3.346986    3.624121   -1.925809
     31          1           0       -5.081071   -1.198227   -3.216099
     32          1           0       -1.770682    5.334765   -1.066444
     33          7           0       -1.320478   -0.609222    1.403299
     34          6           0       -2.266501   -1.593956    1.179447
     35          6           0       -1.980341    0.561226    1.731836
     36          6           0       -2.045119   -2.933650    0.855832
     37          6           0       -3.566808   -1.046488    1.306941
     38          6           0       -1.422904    1.797125    2.063726
     39          6           0       -3.380634    0.357350    1.653102
     40          6           0       -3.170520   -3.736547    0.660865
     41          1           0       -1.036938   -3.321420    0.773530
     42          6           0       -4.668009   -1.858176    1.090829
     43          6           0       -2.302575    2.854395    2.287291
     44          1           0       -0.349854    1.909105    2.147409
     45          6           0       -4.236226    1.424966    1.876350
     46          6           0       -4.458518   -3.208321    0.769185
     47          1           0       -3.039432   -4.784664    0.416384
     48          1           0       -5.676016   -1.464960    1.168696
     49          6           0       -3.685306    2.676480    2.185808
     50          1           0       -1.905047    3.831519    2.536330
     51          1           0       -5.311790    1.301771    1.806502
     52          1           0       -5.314868   -3.853139    0.604830
     53          1           0       -4.345374    3.519514    2.358283
     54          8           0        4.827961   -2.751120    0.222993
     55          6           0        5.061877   -0.159774   -0.098500
     56          6           0        5.068816    0.917782   -0.984735
     57          6           0        5.648142   -0.053206    1.162725
     58          6           0        5.664746    2.115942   -0.598476
     59          1           0        4.630971    0.798747   -1.969606
     60          6           0        6.241624    1.148895    1.540256
     61          1           0        5.651183   -0.912909    1.823313
     62          6           0        6.247300    2.234604    0.663931
     63          1           0        5.683991    2.954557   -1.287340
     64          1           0        6.707397    1.235889    2.516700
     65          1           0        6.714167    3.168448    0.960467
 ---------------------------------------------------------------------

 The electronic state is 1-A.
 Alpha  occ. eigenvalues --  -89.24219 -19.24124 -19.24097 -14.47852 -14.47451
 Alpha  occ. eigenvalues --  -10.36384 -10.35527 -10.34031 -10.32656 -10.32434
 Alpha  occ. eigenvalues --  -10.32107 -10.31945 -10.31108 -10.30901 -10.30834
 Alpha  occ. eigenvalues --  -10.30685 -10.30491 -10.30439 -10.30218 -10.30005
 Alpha  occ. eigenvalues --  -10.29978 -10.27435 -10.27375 -10.27356 -10.27345
 Alpha  occ. eigenvalues --  -10.27333 -10.27280 -10.27268 -10.27263 -10.27225
 Alpha  occ. eigenvalues --  -10.27142 -10.27139 -10.27114 -10.26995 -10.26982
 Alpha  occ. eigenvalues --  -10.26961 -10.26807 -10.26613 -10.26604 -10.26437
 Alpha  occ. eigenvalues --  -10.26275  -8.22686  -6.17645  -6.17612  -6.17540
 Alpha  occ. eigenvalues --   -1.17851  -1.08364  -1.07328  -1.06090  -0.97178
 Alpha  occ. eigenvalues --   -0.95306  -0.92219  -0.91717  -0.91560  -0.91135
 Alpha  occ. eigenvalues --   -0.87650  -0.86904  -0.85375  -0.84088  -0.84021
 Alpha  occ. eigenvalues --   -0.83498  -0.82034  -0.81496  -0.79933  -0.78797
 Alpha  occ. eigenvalues --   -0.78548  -0.78326  -0.75977  -0.72468  -0.71977
 Alpha  occ. eigenvalues --   -0.69970  -0.69596  -0.69321  -0.67369  -0.67152
 Alpha  occ. eigenvalues --   -0.66900  -0.65802  -0.64137  -0.63951  -0.63665
 Alpha  occ. eigenvalues --   -0.62086  -0.60754  -0.58976  -0.58457  -0.58056
 Alpha  occ. eigenvalues --   -0.57745  -0.57601  -0.56507  -0.55770  -0.55020
 Alpha  occ. eigenvalues --   -0.54048  -0.53606  -0.52508  -0.52291  -0.51578
 Alpha  occ. eigenvalues --   -0.51528  -0.51141  -0.50990  -0.50527  -0.50461
 Alpha  occ. eigenvalues --   -0.50036  -0.49623  -0.49312  -0.49079  -0.48889
 Alpha  occ. eigenvalues --   -0.47851  -0.47757  -0.47411  -0.47287  -0.46809
 Alpha  occ. eigenvalues --   -0.46489  -0.45251  -0.45061  -0.44458  -0.42721
 Alpha  occ. eigenvalues --   -0.42530  -0.42178  -0.42043  -0.41951  -0.41837
 Alpha  occ. eigenvalues --   -0.40057  -0.39810  -0.39567  -0.39459  -0.39129
 Alpha  occ. eigenvalues --   -0.38945  -0.38838  -0.38145  -0.37557  -0.36551
 Alpha  occ. eigenvalues --   -0.35850  -0.35688  -0.35199  -0.34314  -0.33175
 Alpha  occ. eigenvalues --   -0.32709  -0.32541  -0.31578  -0.29315  -0.26866
 Alpha  occ. eigenvalues --   -0.26197  -0.26078  -0.24448
 Alpha virt. eigenvalues --   -0.03237   0.01163   0.02196   0.02325   0.03362
 Alpha virt. eigenvalues --    0.03599   0.05871   0.06702   0.08086   0.08856
 Alpha virt. eigenvalues --    0.10045   0.11124   0.11448   0.12834   0.14414

 Mulliken charges:
               1
     1  C    0.197952
     2  C    0.199851
     3  C   -0.108680
     4  C   -0.205803
     5  C   -0.108033
     6  C   -0.141130
     7  S    1.165950
     8  O   -0.570015
     9  H    0.204116
    10  H    0.186236
    11  H    0.178556
    12  N   -0.714161
    13  C    0.294179
    14  C    0.301116
    15  C   -0.134592
    16  C    0.033759
    17  C   -0.162680
    18  C    0.041586
    19  C   -0.129018
    20  H    0.127763
    21  C   -0.168747
    22  C   -0.139732
    23  H    0.126207
    24  C   -0.160247
    25  C   -0.147866
    26  H    0.128424
    27  H    0.130560
    28  C   -0.148781
    29  H    0.124635
    30  H    0.133471
    31  H    0.123403
    32  H    0.123296
    33  N   -0.708939
    34  C    0.303780
    35  C    0.294927
    36  C   -0.157800
    37  C    0.045391
    38  C   -0.133396
    39  C    0.036463
    40  C   -0.139720
    41  H    0.128490
    42  C   -0.166055
    43  C   -0.129194
    44  H    0.121580
    45  C   -0.170392
    46  C   -0.147929
    47  H    0.128909
    48  H    0.134095
    49  C   -0.149199
    50  H    0.127129
    51  H    0.131638
    52  H    0.124422
    53  H    0.123025
    54  O   -0.568757
    55  C   -0.190603
    56  C   -0.116395
    57  C   -0.114711
    58  C   -0.132178
    59  H    0.176328
    60  C   -0.131498
    61  H    0.171247
    62  C   -0.121555
    63  H    0.151278
    64  H    0.149238
    65  H    0.148807
 Sum of Mulliken charges =  -0.00000

 Dipole moment (field-independent basis, Debye):
    X=             -0.3196    Y=              3.6253    Z=              3.0247  Tot=              4.7322
 Quadrupole moment (field-independent basis, Debye-Ang):
   XX=           -228.4803   YY=           -228.3255   ZZ=           -241.8904
   XY=             25.0110   XZ=             19.3568   YZ=             -2.5787

 Normal termination of Gaussian 16 at Sat Aug 17 14:40:27 2024.
