 Gaussian 16, Revision C.01,
 Gaussian 16:  ES64L-G16RevC.01  3-Jul-2019

 ----------------------------------------------------------------------
 #p opt wB97XD/6-31G** iop(3/107=0158200000) IOP(3/108=0158200000) TDA=
 (triplets, nstates=4, root=1)
 ----------------------------------------------------------------------

 ------------------------------------------------------------
 Tuning input file generated by xtune with parameters: w01582
 ------------------------------------------------------------
 Symbolic Z-matrix:
 Charge =  0 Multiplicity = 1

 SCF Done:  E(RwB97XD) =  -1527.82787015     A.U. after   16 cycles
 SCF Done:  E(RwB97XD) =  -1527.82021519     A.U. after   13 cycles
 SCF Done:  E(RwB97XD) =  -1527.81417627     A.U. after   12 cycles
 SCF Done:  E(RwB97XD) =  -1527.81443821     A.U. after   10 cycles
 SCF Done:  E(RwB97XD) =  -1527.81444378     A.U. after    9 cycles
 SCF Done:  E(RwB97XD) =  -1527.81446245     A.U. after    8 cycles
 SCF Done:  E(RwB97XD) =  -1527.81447232     A.U. after    7 cycles
 SCF Done:  E(RwB97XD) =  -1527.81446250     A.U. after    7 cycles
 SCF Done:  E(RwB97XD) =  -1527.81445910     A.U. after    7 cycles
 SCF Done:  E(RwB97XD) =  -1527.81445726     A.U. after    7 cycles
 SCF Done:  E(RwB97XD) =  -1527.81445852     A.U. after    7 cycles

 Excitation energies and oscillator strengths:

 Excited State   1:      Triplet-A      2.9182 eV  424.87 nm  f=0.0000  <S**2>=2.000
      94 ->108        -0.11587
     100 ->101         0.21865
     100 ->102         0.63983
 This state for optimization and/or second-order correction.
 Total Energy, E(CIS/TDA) =  -1527.70721838
 Copying the excited state density for this state as the 1-particle RhoCI density.

 Excited State   2:      Triplet-A      3.4740 eV  356.89 nm  f=0.0000  <S**2>=2.000
      98 ->108        -0.10858
      99 ->101         0.24862
      99 ->102         0.62791

 Excited State   3:      Triplet-A      3.7160 eV  333.65 nm  f=0.0000  <S**2>=2.000
      93 ->101        -0.16239
      93 ->104         0.13789
      95 ->103        -0.13179
      97 ->101        -0.27465
      99 ->101         0.45697
      99 ->102        -0.19012
      99 ->104        -0.25115

 Excited State   4:      Triplet-A      4.1755 eV  296.93 nm  f=0.0000  <S**2>=2.000
      93 ->101        -0.19873
      93 ->104        -0.16885
      94 ->101        -0.14171
      94 ->104        -0.11717
      96 ->103        -0.18743
      96 ->105        -0.32327
      97 ->101         0.30210
      97 ->102        -0.10744
      97 ->104         0.30227
      99 ->104        -0.12533

 Optimization completed.
    -- Stationary point found.

                         Standard orientation:
 ---------------------------------------------------------------------
 Center     Atomic      Atomic             Coordinates (Angstroms)
 Number     Number       Type             X           Y           Z
 ---------------------------------------------------------------------
      1          6           0        3.259128   -0.977902    0.164447
      2          6           0        2.796967    1.231106   -0.163731
      3          6           0        3.210606   -2.339161    0.272270
      4          6           0        4.506521   -0.240199    0.248168
      5          6           0        2.199508    2.446848   -0.344611
      6          6           0        4.227881    1.096402    0.042324
      7          6           0        4.447913   -3.031415    0.502568
      8          1           0        2.283746   -2.891654    0.175597
      9          6           0        5.734010   -0.968614    0.492541
     10          6           0        3.044907    3.607547   -0.351424
     11          1           0        1.127824    2.548095   -0.467336
     12          6           0        5.052308    2.286750    0.018164
     13          6           0        5.670057   -2.340186    0.612083
     14          1           0        4.432443   -4.111607    0.591750
     15          1           0        6.673672   -0.434829    0.573063
     16          6           0        4.439057    3.505247   -0.177006
     17          1           0        2.592489    4.582228   -0.494401
     18          1           0        6.124288    2.206009    0.155028
     19          6           0        0.870420   -0.356644   -0.227904
     20          6           0        0.226207   -1.147556    0.729891
     21          6           0       -1.120883   -1.453686    0.585666
     22          6           0       -1.821493   -0.952497   -0.508385
     23          6           0       -1.191864   -0.164819   -1.469468
     24          6           0        0.158792    0.126350   -1.332242
     25          7           0        2.237935   -0.050824   -0.084305
     26         16           0       -3.566337   -1.313623   -0.673569
     27          8           0       -3.841101   -2.512938    0.117046
     28          1           0        6.578287   -2.906066    0.792908
     29          1           0        5.037729    4.410267   -0.196671
     30          1           0       -1.629496   -2.079089    1.310793
     31          1           0       -1.749445    0.183654   -2.331688
     32          1           0        0.675413    0.711151   -2.084954
     33          1           0        0.784140   -1.510035    1.585878
     34          8           0       -3.899658   -1.233829   -2.095336
     35          6           0       -4.356594    0.070055    0.145526
     36          6           0       -4.591167    0.003211    1.516906
     37          6           0       -4.708114    1.190609   -0.602998
     38          6           0       -5.183641    1.091010    2.151629
     39          1           0       -4.330444   -0.894775    2.065949
     40          6           0       -5.300698    2.272045    0.042993
     41          1           0       -4.536598    1.198552   -1.673658
     42          6           0       -5.533410    2.223153    1.416692
     43          1           0       -5.378016    1.052224    3.218126
     44          1           0       -5.586308    3.149592   -0.527180
     45          1           0       -5.996305    3.068231    1.915773
 ---------------------------------------------------------------------

 The electronic state is 1-A.
 Alpha  occ. eigenvalues --  -89.24478 -19.24714 -19.24705 -14.49536 -10.35523
 Alpha  occ. eigenvalues --  -10.32958 -10.32921 -10.32722 -10.32513 -10.31765
 Alpha  occ. eigenvalues --  -10.31741 -10.31163 -10.31155 -10.31143 -10.31126
 Alpha  occ. eigenvalues --  -10.30843 -10.30646 -10.30638 -10.29377 -10.29329
 Alpha  occ. eigenvalues --  -10.29294 -10.29293 -10.29286 -10.29274 -10.29214
 Alpha  occ. eigenvalues --  -10.29195 -10.28378 -10.28315  -8.22983  -6.17954
 Alpha  occ. eigenvalues --   -6.17893  -6.17833  -1.18665  -1.08453  -1.08271
 Alpha  occ. eigenvalues --   -0.97271  -0.96189  -0.93195  -0.92610  -0.88203
 Alpha  occ. eigenvalues --   -0.86414  -0.85860  -0.84883  -0.84741  -0.83901
 Alpha  occ. eigenvalues --   -0.81349  -0.78918  -0.76497  -0.72828  -0.71901
 Alpha  occ. eigenvalues --   -0.71015  -0.70366  -0.67798  -0.67453  -0.65935
 Alpha  occ. eigenvalues --   -0.65361  -0.62923  -0.61628  -0.59498  -0.59274
 Alpha  occ. eigenvalues --   -0.58133  -0.56605  -0.55586  -0.54670  -0.54252
 Alpha  occ. eigenvalues --   -0.53543  -0.53112  -0.52646  -0.51967  -0.51673
 Alpha  occ. eigenvalues --   -0.51504  -0.51227  -0.51021  -0.49816  -0.49148
 Alpha  occ. eigenvalues --   -0.48936  -0.47835  -0.47038  -0.45854  -0.44993
 Alpha  occ. eigenvalues --   -0.44334  -0.43602  -0.43263  -0.43227  -0.42612
 Alpha  occ. eigenvalues --   -0.41570  -0.40776  -0.40020  -0.39787  -0.38807
 Alpha  occ. eigenvalues --   -0.37173  -0.35780  -0.35595  -0.34835  -0.34483
 Alpha  occ. eigenvalues --   -0.33632  -0.32982  -0.32724  -0.26951  -0.26444
 Alpha virt. eigenvalues --    0.00031   0.01097   0.02817   0.03693   0.04269
 Alpha virt. eigenvalues --    0.06554   0.09139   0.09902   0.12509   0.15565
 Alpha virt. eigenvalues --    0.15889   0.16157   0.16991   0.17725   0.18299

 Mulliken charges:
               1
     1  C    0.319935
     2  C    0.320038
     3  C   -0.163555
     4  C   -0.011361
     5  C   -0.162435
     6  C   -0.011295
     7  C   -0.142983
     8  H    0.138425
     9  C   -0.135057
    10  C   -0.143161
    11  H    0.133829
    12  C   -0.135010
    13  C   -0.139994
    14  H    0.131242
    15  H    0.132310
    16  C   -0.140157
    17  H    0.128990
    18  H    0.132622
    19  C    0.253547
    20  C   -0.134444
    21  C   -0.121831
    22  C   -0.197533
    23  C   -0.121115
    24  C   -0.134171
    25  N   -0.755696
    26  S    1.176338
    27  O   -0.565440
    28  H    0.127788
    29  H    0.127291
    30  H    0.175830
    31  H    0.174753
    32  H    0.162548
    33  H    0.161807
    34  O   -0.565270
    35  C   -0.199576
    36  C   -0.106308
    37  C   -0.108135
    38  C   -0.128915
    39  H    0.168879
    40  C   -0.129326
    41  H    0.170186
    42  C   -0.117012
    43  H    0.145247
    44  H    0.144803
    45  H    0.143373
 Sum of Mulliken charges =  -0.00000

 Dipole moment (field-independent basis, Debye):
    X=              1.3489    Y=              4.1192    Z=              2.4018  Tot=              4.9555
 Quadrupole moment (field-independent basis, Debye-Ang):
   XX=           -161.5181   YY=           -159.5479   ZZ=           -165.4496
   XY=            -22.7474   XZ=            -10.6321   YZ=             -7.6503

 Normal termination of Gaussian 16 at Sun Aug 11 17:43:05 2024.
