 Gaussian 16, Revision C.01,
 Gaussian 16:  ES64L-G16RevC.01  3-Jul-2019

 ----------------------------------------------------------------------
 #p opt=Restart wb97xd/6-31G** iop(3/107=0103900000,3/108=0103900000) T
 DA=(triplets, nstates=4, root=1)
 ----------------------------------------------------------------------

 SCF Done:  E(RwB97XD) =  -3503.77514899     A.U. after    6 cycles
 SCF Done:  E(RwB97XD) =  -3503.77513740     A.U. after    6 cycles

 Excitation energies and oscillator strengths:

 Excited State   1:      Triplet-A      2.5890 eV  478.89 nm  f=0.0000  <S**2>=2.000
     271 -> 283       -0.14774
     273 -> 283       -0.17917
     282 -> 283        0.63719
 This state for optimization and/or second-order correction.
 Total Energy, E(CIS/TDA) =  -3503.67999446
 Copying the excited state density for this state as the 1-particle RhoCI density.

 Excited State   2:      Triplet-A      3.0486 eV  406.69 nm  f=0.0000  <S**2>=2.000
     267 -> 283        0.11791
     280 -> 283        0.35971
     281 -> 283       -0.55948
     282 -> 283        0.10617

 Excited State   3:      Triplet-A      3.1866 eV  389.08 nm  f=0.0000  <S**2>=2.000
     280 -> 283       -0.57388
     281 -> 283       -0.37146

 Excited State   4:      Triplet-A      3.4794 eV  356.34 nm  f=0.0000  <S**2>=2.000
     277 -> 285       -0.32093
     279 -> 283        0.34005
     279 -> 285        0.26136
     279 -> 287       -0.18455
     281 -> 285       -0.10896
     281 -> 290       -0.10263
     282 -> 287        0.12302

 Optimization completed.
    -- Stationary point found.

                         Standard orientation:
 ---------------------------------------------------------------------
 Center     Atomic      Atomic             Coordinates (Angstroms)
 Number     Number       Type             X           Y           Z
 ---------------------------------------------------------------------
      1          6           0       -2.272234    0.192483    1.635626
      2          6           0       -1.238090    2.096913    0.999871
      3          6           0       -2.600156   -1.127420    1.928929
      4          6           0       -3.081591    1.258508    2.084115
      5          6           0       -0.381257    3.050061    0.454967
      6          6           0       -2.410740    2.482991    1.688304
      7          6           0       -3.787699   -1.367035    2.615937
      8          1           0       -1.958123   -1.948712    1.634089
      9          6           0       -4.259514    0.989423    2.775303
     10          6           0       -0.703625    4.394564    0.629086
     11          1           0        0.513718    2.761774   -0.083509
     12          6           0       -2.707565    3.833711    1.843191
     13          6           0       -4.643640   -0.332258    3.039212
     14          1           0       -4.043188   -2.398292    2.823524
     15          1           0       -4.879078    1.816951    3.106195
     16          6           0       -1.854335    4.817170    1.322346
     17          1           0       -0.026800    5.129301    0.210950
     18          1           0       -3.611493    4.117608    2.372825
     19          6           0       -0.229544   -0.032423    0.200426
     20          6           0       -0.653308   -1.049800   -0.777017
     21          6           0        0.280588   -1.900972   -1.337853
     22          6           0        1.642797   -1.854081   -1.000488
     23          6           0        2.078327   -0.783579   -0.073470
     24          6           0        1.140293    0.068080    0.476963
     25          1           0       -0.026863   -2.582965   -2.122151
     26          6           0        4.292743   -1.372390    0.955900
     27          6           0        4.117430    0.624560   -0.092445
     28          6           0        4.041030   -2.609110    1.545671
     29          6           0        5.534820   -0.726275    1.108475
     30          6           0        3.696525    1.716971   -0.842261
     31          6           0        5.427853    0.553614    0.428802
     32          6           0        5.073169   -3.196845    2.262778
     33          1           0        3.086226   -3.104148    1.425155
     34          6           0        6.554326   -1.341504    1.838416
     35          6           0        4.604186    2.753739   -1.047365
     36          1           0        2.705397    1.747670   -1.278185
     37          6           0        6.313737    1.602869    0.204072
     38          6           0        6.340731   -2.592108    2.423894
     39          1           0        4.887646   -4.167052    2.711160
     40          1           0        7.503357   -0.830991    1.949142
     41          6           0        5.915155    2.726841   -0.535382
     42          1           0        4.272994    3.600718   -1.635006
     43          1           0        7.321105    1.538362    0.603015
     44          6           0       -5.973480   -0.603543    3.764713
     45          6           0       -2.197262    6.303753    1.528075
     46          7           0       -1.167380    0.703978    0.946121
     47          7           0        3.436198   -0.556254    0.210758
     48          6           0        6.915129    3.874647   -0.762896
     49          6           0        7.426182   -3.324728    3.230782
     50         16           0        2.749002   -2.698853   -2.089769
     51          6           0        3.659727   -1.400117   -2.938507
     52          6           0        2.990960   -0.585928   -3.854935
     53          6           0        5.007913   -1.204441   -2.643737
     54          6           0        3.690642    0.439854   -4.485190
     55          1           0        1.944636   -0.764418   -4.076714
     56          6           0        5.698433   -0.175000   -3.281455
     57          1           0        5.493835   -1.850660   -1.922388
     58          6           0        5.042177    0.645673   -4.197845
     59          1           0        3.183451    1.075522   -5.203193
     60          1           0        6.745124   -0.010790   -3.053107
     61          1           0        5.581878    1.448530   -4.688561
     62          8           0        3.732823   -3.465020   -1.316297
     63          8           0        1.916733   -3.391701   -3.084735
     64          1           0        1.475619    0.796076    1.207872
     65          6           0        7.355137    4.448830    0.603380
     66          1           0        7.843792    3.692440    1.223578
     67          1           0        8.064117    5.271679    0.462327
     68          1           0        6.493973    4.830690    1.159618
     69          6           0        6.312420    5.023307   -1.592145
     70          1           0        6.006504    4.688939   -2.588397
     71          1           0        5.445409    5.471057   -1.096646
     72          1           0        7.058905    5.812092   -1.725106
     73          6           0        8.152431    3.337793   -1.518130
     74          1           0        7.865267    2.929196   -2.491347
     75          1           0        8.877116    4.141687   -1.685797
     76          1           0        8.659233    2.546364   -0.959233
     77          6           0        6.923435   -3.564987    4.672806
     78          1           0        6.019037   -4.179018    4.691835
     79          1           0        7.688095   -4.082558    5.261897
     80          1           0        6.694196   -2.616523    5.167743
     81          6           0        8.736915   -2.521141    3.309792
     82          1           0        9.163094   -2.341194    2.317868
     83          1           0        8.592936   -1.555827    3.805372
     84          1           0        9.477493   -3.080770    3.888979
     85          6           0        7.734672   -4.682073    2.557897
     86          1           0        6.852243   -5.325951    2.516345
     87          1           0        8.087712   -4.536042    1.532942
     88          1           0        8.511167   -5.216466    3.115782
     89          6           0       -3.562845    6.613995    0.873791
     90          1           0       -4.365570    6.004406    1.297832
     91          1           0       -3.829287    7.665515    1.024702
     92          1           0       -3.528961    6.423050   -0.202727
     93          6           0       -2.271768    6.606178    3.042380
     94          1           0       -2.506018    7.662852    3.209946
     95          1           0       -3.044708    6.012577    3.538142
     96          1           0       -1.317692    6.385677    3.529944
     97          6           0       -1.146447    7.240956    0.905269
     98          1           0       -0.156826    7.094112    1.348677
     99          1           0       -1.064997    7.099751   -0.177046
    100          1           0       -1.433464    8.282279    1.079352
    101          6           0       -7.136555   -0.066553    2.898844
    102          1           0       -8.098446   -0.253806    3.388370
    103          1           0       -7.051592    1.010703    2.731065
    104          1           0       -7.147901   -0.556284    1.920524
    105          6           0       -5.976795    0.111270    5.134898
    106          1           0       -5.870101    1.194522    5.030932
    107          1           0       -6.917556   -0.078823    5.662465
    108          1           0       -5.154844   -0.246567    5.761811
    109          6           0       -6.212781   -2.104412    4.009382
    110          1           0       -6.263044   -2.665142    3.071570
    111          1           0       -5.429169   -2.544237    4.634052
    112          1           0       -7.165699   -2.245290    4.528360
    113          7           0       -1.997966   -1.143424   -1.152335
    114          6           0       -2.842162   -0.075680   -1.485643
    115          6           0       -2.773289   -2.309199   -1.105195
    116          6           0       -2.522596    1.247670   -1.766791
    117          6           0       -4.166668   -0.545022   -1.599150
    118          6           0       -2.402303   -3.612287   -0.784623
    119          6           0       -4.123066   -1.978523   -1.359708
    120          6           0       -3.567223    2.117810   -2.072509
    121          1           0       -1.499441    1.600356   -1.744119
    122          6           0       -5.187999    0.339962   -1.918346
    123          6           0       -3.400411   -4.585506   -0.759423
    124          1           0       -1.374950   -3.872534   -0.562488
    125          6           0       -5.096647   -2.967444   -1.320560
    126          6           0       -4.907566    1.698280   -2.140502
    127          1           0       -3.313280    3.152613   -2.261217
    128          1           0       -6.205369   -0.029312   -1.994540
    129          6           0       -4.750589   -4.297251   -1.028713
    130          1           0       -3.103021   -5.598895   -0.521966
    131          1           0       -6.130612   -2.699400   -1.511241
    132          6           0       -6.063256    2.666685   -2.443552
    133          6           0       -5.846881   -5.376149   -1.009314
    134          6           0       -5.573070    4.103805   -2.695620
    135          6           0       -6.825609    2.191068   -3.701094
    136          6           0       -7.024519    2.690984   -1.232408
    137          6           0       -5.288746   -6.774893   -0.690020
    138          6           0       -6.897516   -5.019954    0.067404
    139          6           0       -6.528015   -5.435083   -2.396168
    140          1           0       -5.055182    4.513716   -1.824072
    141          1           0       -4.900302    4.158901   -3.557060
    142          1           0       -6.429049    4.752106   -2.905010
    143          1           0       -6.161105    2.156235   -4.569362
    144          1           0       -7.254257    1.194042   -3.567834
    145          1           0       -7.648947    2.876371   -3.927942
    146          1           0       -6.500558    3.016548   -0.329135
    147          1           0       -7.854044    3.381746   -1.417114
    148          1           0       -7.450744    1.703947   -1.033031
    149          1           0       -4.554176   -7.099546   -1.433144
    150          1           0       -4.820974   -6.811561    0.298647
    151          1           0       -6.104073   -7.504188   -0.693483
    152          1           0       -7.365701   -4.050340   -0.123534
    153          1           0       -7.691574   -5.773591    0.087789
    154          1           0       -6.438905   -4.981891    1.059604
    155          1           0       -6.999875   -4.484563   -2.659913
    156          1           0       -5.800839   -5.675775   -3.176982
    157          1           0       -7.306443   -6.205064   -2.404367
 ---------------------------------------------------------------------

 The electronic state is 1-A.
 Alpha  occ. eigenvalues --  -89.21833 -19.21788 -19.21420 -14.47031 -14.46623
 Alpha  occ. eigenvalues --  -14.46455 -10.34308 -10.34297 -10.33569 -10.31631
 Alpha  occ. eigenvalues --  -10.29942 -10.29659 -10.29639 -10.29629 -10.29605
 Alpha  occ. eigenvalues --  -10.29532 -10.29398 -10.29334 -10.29182 -10.28177
 Alpha  occ. eigenvalues --  -10.27689 -10.27682 -10.27559 -10.27549 -10.27545
 Alpha  occ. eigenvalues --  -10.27268 -10.27218 -10.27164 -10.27136 -10.26825
 Alpha  occ. eigenvalues --  -10.26379 -10.26325 -10.26272 -10.26127 -10.26113
 Alpha  occ. eigenvalues --  -10.26107 -10.26101 -10.26033 -10.25999 -10.25986
 Alpha  occ. eigenvalues --  -10.25964 -10.25924 -10.25918 -10.25890 -10.25811
 Alpha  occ. eigenvalues --  -10.25810 -10.25790 -10.25762 -10.25735 -10.25677
 Alpha  occ. eigenvalues --  -10.25667 -10.25645 -10.25572 -10.25514 -10.25482
 Alpha  occ. eigenvalues --  -10.25407 -10.25369 -10.25334 -10.25232 -10.25054
 Alpha  occ. eigenvalues --  -10.24545 -10.24493 -10.24486 -10.24403 -10.24294
 Alpha  occ. eigenvalues --  -10.24291 -10.24125 -10.24097 -10.24067 -10.24028
 Alpha  occ. eigenvalues --  -10.24022 -10.24006 -10.23986 -10.23979 -10.23973
 Alpha  occ. eigenvalues --  -10.23869 -10.23687 -10.23540  -8.20190  -6.15149
 Alpha  occ. eigenvalues --   -6.15116  -6.15050  -1.15245  -1.06569  -1.05527
 Alpha  occ. eigenvalues --   -1.04749  -1.04606  -0.94735  -0.92626  -0.91848
 Alpha  occ. eigenvalues --   -0.91320  -0.90936  -0.90761  -0.90693  -0.90068
 Alpha  occ. eigenvalues --   -0.87840  -0.87470  -0.86578  -0.86495  -0.86310
 Alpha  occ. eigenvalues --   -0.86188  -0.84605  -0.83673  -0.83038  -0.82586
 Alpha  occ. eigenvalues --   -0.82139  -0.81359  -0.81232  -0.79621  -0.79408
 Alpha  occ. eigenvalues --   -0.79309  -0.78605  -0.77499  -0.77118  -0.76914
 Alpha  occ. eigenvalues --   -0.76841  -0.75893  -0.73817  -0.73806  -0.73628
 Alpha  occ. eigenvalues --   -0.73621  -0.73590  -0.73556  -0.73315  -0.73271
 Alpha  occ. eigenvalues --   -0.73253  -0.73233  -0.73188  -0.73060  -0.72857
 Alpha  occ. eigenvalues --   -0.71247  -0.70131  -0.68477  -0.68211  -0.67378
 Alpha  occ. eigenvalues --   -0.67009  -0.66658  -0.66534  -0.66260  -0.65576
 Alpha  occ. eigenvalues --   -0.65158  -0.64125  -0.62855  -0.62543  -0.62535
 Alpha  occ. eigenvalues --   -0.62366  -0.60829  -0.60282  -0.60175  -0.59757
 Alpha  occ. eigenvalues --   -0.59464  -0.59148  -0.58713  -0.58453  -0.57756
 Alpha  occ. eigenvalues --   -0.56729  -0.56248  -0.56117  -0.55908  -0.55213
 Alpha  occ. eigenvalues --   -0.53635  -0.53006  -0.52560  -0.52516  -0.52097
 Alpha  occ. eigenvalues --   -0.51768  -0.51583  -0.51350  -0.51168  -0.50969
 Alpha  occ. eigenvalues --   -0.50902  -0.50694  -0.50180  -0.50035  -0.49926
 Alpha  occ. eigenvalues --   -0.49692  -0.49502  -0.49268  -0.49219  -0.49093
 Alpha  occ. eigenvalues --   -0.48593  -0.48570  -0.48501  -0.48260  -0.48174
 Alpha  occ. eigenvalues --   -0.48136  -0.48128  -0.47990  -0.47857  -0.47752
 Alpha  occ. eigenvalues --   -0.47617  -0.47423  -0.47056  -0.46889  -0.46774
 Alpha  occ. eigenvalues --   -0.46711  -0.46610  -0.46327  -0.46124  -0.46085
 Alpha  occ. eigenvalues --   -0.46041  -0.45886  -0.45793  -0.45350  -0.44715
 Alpha  occ. eigenvalues --   -0.44496  -0.44391  -0.43902  -0.43827  -0.43598
 Alpha  occ. eigenvalues --   -0.43546  -0.43509  -0.43341  -0.43195  -0.43114
 Alpha  occ. eigenvalues --   -0.42851  -0.42602  -0.42375  -0.42174  -0.42134
 Alpha  occ. eigenvalues --   -0.41955  -0.41809  -0.41784  -0.41771  -0.41529
 Alpha  occ. eigenvalues --   -0.41072  -0.41026  -0.40726  -0.40661  -0.40607
 Alpha  occ. eigenvalues --   -0.40312  -0.40180  -0.40024  -0.39877  -0.39862
 Alpha  occ. eigenvalues --   -0.39714  -0.39502  -0.39410  -0.39169  -0.39006
 Alpha  occ. eigenvalues --   -0.38904  -0.38331  -0.38268  -0.37893  -0.37227
 Alpha  occ. eigenvalues --   -0.37131  -0.36922  -0.36919  -0.36886  -0.36723
 Alpha  occ. eigenvalues --   -0.36672  -0.36653  -0.36540  -0.36426  -0.36253
 Alpha  occ. eigenvalues --   -0.36208  -0.35806  -0.35776  -0.35691  -0.35567
 Alpha  occ. eigenvalues --   -0.35530  -0.35467  -0.35418  -0.35190  -0.34202
 Alpha  occ. eigenvalues --   -0.33520  -0.32947  -0.32480  -0.32038  -0.32008
 Alpha  occ. eigenvalues --   -0.31407  -0.30694  -0.30186  -0.28914  -0.28540
 Alpha  occ. eigenvalues --   -0.28502  -0.25979  -0.25180  -0.25087  -0.24390
 Alpha  occ. eigenvalues --   -0.24065  -0.23133
 Alpha virt. eigenvalues --   -0.02770   0.00666   0.01656   0.01848   0.01921
 Alpha virt. eigenvalues --    0.02478   0.03513   0.04562   0.05465   0.05725
 Alpha virt. eigenvalues --    0.07124   0.07451   0.08138   0.09060   0.09321

 Mulliken charges:
               1
     1  C    0.304980
     2  C    0.304099
     3  C   -0.142848
     4  C    0.026522
     5  C   -0.168377
     6  C    0.032775
     7  C   -0.179283
     8  H    0.137407
     9  C   -0.197441
    10  C   -0.185093
    11  H    0.134629
    12  C   -0.199191
    13  C    0.122045
    14  H    0.128557
    15  H    0.122917
    16  C    0.120087
    17  H    0.123034
    18  H    0.125520
    19  C    0.221209
    20  C    0.259506
    21  C   -0.176694
    22  C   -0.243366
    23  C    0.228616
    24  C   -0.142985
    25  H    0.219651
    26  C    0.299155
    27  C    0.301057
    28  C   -0.116619
    29  C    0.011286
    30  C   -0.153661
    31  C    0.021727
    32  C   -0.179372
    33  H    0.146633
    34  C   -0.209600
    35  C   -0.182060
    36  H    0.133535
    37  C   -0.205707
    38  C    0.126978
    39  H    0.123243
    40  H    0.121134
    41  C    0.119674
    42  H    0.118553
    43  H    0.125151
    44  C   -0.068032
    45  C   -0.068191
    46  N   -0.749756
    47  N   -0.752994
    48  C   -0.067283
    49  C   -0.074292
    50  S    1.203300
    51  C   -0.199648
    52  C   -0.120543
    53  C   -0.113343
    54  C   -0.140588
    55  H    0.171523
    56  C   -0.126810
    57  H    0.193399
    58  C   -0.121533
    59  H    0.148891
    60  H    0.156994
    61  H    0.147277
    62  O   -0.560704
    63  O   -0.566985
    64  H    0.190927
    65  C   -0.363810
    66  H    0.125274
    67  H    0.122920
    68  H    0.135942
    69  C   -0.385068
    70  H    0.126673
    71  H    0.130944
    72  H    0.127224
    73  C   -0.365295
    74  H    0.129463
    75  H    0.124652
    76  H    0.124669
    77  C   -0.364431
    78  H    0.124517
    79  H    0.122405
    80  H    0.133997
    81  C   -0.381716
    82  H    0.128905
    83  H    0.128820
    84  H    0.125713
    85  C   -0.364016
    86  H    0.127885
    87  H    0.136764
    88  H    0.121208
    89  C   -0.367602
    90  H    0.124500
    91  H    0.124361
    92  H    0.136015
    93  C   -0.364221
    94  H    0.123506
    95  H    0.124382
    96  H    0.136893
    97  C   -0.386299
    98  H    0.132024
    99  H    0.128609
   100  H    0.127524
   101  C   -0.364604
   102  H    0.121721
   103  H    0.124624
   104  H    0.136957
   105  C   -0.364525
   106  H    0.121795
   107  H    0.123034
   108  H    0.136201
   109  C   -0.393038
   110  H    0.139168
   111  H    0.131010
   112  H    0.125382
   113  N   -0.754384
   114  C    0.305640
   115  C    0.303932
   116  C   -0.142648
   117  C    0.028297
   118  C   -0.169734
   119  C    0.027919
   120  C   -0.178950
   121  H    0.127468
   122  C   -0.198391
   123  C   -0.183579
   124  H    0.145329
   125  C   -0.199950
   126  C    0.121146
   127  H    0.126126
   128  H    0.122781
   129  C    0.119412
   130  H    0.126761
   131  H    0.124226
   132  C   -0.067684
   133  C   -0.067973
   134  C   -0.393609
   135  C   -0.364436
   136  C   -0.364960
   137  C   -0.387295
   138  C   -0.367135
   139  C   -0.364503
   140  H    0.139466
   141  H    0.129693
   142  H    0.124971
   143  H    0.135663
   144  H    0.122821
   145  H    0.122460
   146  H    0.136732
   147  H    0.121024
   148  H    0.125220
   149  H    0.134501
   150  H    0.129556
   151  H    0.126778
   152  H    0.123276
   153  H    0.123930
   154  H    0.135656
   155  H    0.123209
   156  H    0.138266
   157  H    0.122923
 Sum of Mulliken charges =  -0.00000

 Dipole moment (field-independent basis, Debye):
    X=             -1.2991    Y=              5.0647    Z=              0.7843  Tot=              5.2871
 Quadrupole moment (field-independent basis, Debye-Ang):
   XX=           -429.6667   YY=           -457.0066   ZZ=           -468.5868
   XY=             19.7294   XZ=             -3.8263   YZ=            -22.7641

 Normal termination of Gaussian 16 at Tue Aug 27 11:46:25 2024.
