 Gaussian 16, Revision C.01,
 Gaussian 16:  ES64L-G16RevC.01  3-Jul-2019

 ----------------------------------------------------------------------
 #p opt=Restart wB97XD/6-31G** iop(3/107=0119500000,3/108=0119500000) T
 DA=(triplets, nstates=4, root=1)
 ----------------------------------------------------------------------

 SCF Done:  E(RwB97XD) =  -2560.23277059     A.U. after   13 cycles
 SCF Done:  E(RwB97XD) =  -2560.23402297     A.U. after   12 cycles
 SCF Done:  E(RwB97XD) =  -2560.23495203     A.U. after   11 cycles
 SCF Done:  E(RwB97XD) =  -2560.23453732     A.U. after   11 cycles
 SCF Done:  E(RwB97XD) =  -2560.23436682     A.U. after    8 cycles
 SCF Done:  E(RwB97XD) =  -2560.23441103     A.U. after   10 cycles
 SCF Done:  E(RwB97XD) =  -2560.23437189     A.U. after   10 cycles
 SCF Done:  E(RwB97XD) =  -2560.23437283     A.U. after   10 cycles
 SCF Done:  E(RwB97XD) =  -2560.23432416     A.U. after    7 cycles
 SCF Done:  E(RwB97XD) =  -2560.23411703     A.U. after   10 cycles
 SCF Done:  E(RwB97XD) =  -2560.23402502     A.U. after   10 cycles
 SCF Done:  E(RwB97XD) =  -2560.23407275     A.U. after    7 cycles
 SCF Done:  E(RwB97XD) =  -2560.23399470     A.U. after   10 cycles
 SCF Done:  E(RwB97XD) =  -2560.23407321     A.U. after   10 cycles

 Excitation energies and oscillator strengths:

 Excited State   1:      Triplet-A      2.4360 eV  508.96 nm  f=0.0000  <S**2>=2.000
     172 ->187         0.14937
     177 ->187         0.20560
     186 ->187        -0.62791
     186 ->189         0.10809
 This state for optimization and/or second-order correction.
 Total Energy, E(CIS/TDA) =  -2560.14455006
 Copying the excited state density for this state as the 1-particle RhoCI density.

 Excited State   2:      Triplet-A      2.9572 eV  419.26 nm  f=0.0000  <S**2>=2.000
     181 ->187        -0.10178
     183 ->187        -0.24552
     184 ->187         0.60642
     184 ->189        -0.10130
     185 ->187        -0.12399

 Excited State   3:      Triplet-A      3.0777 eV  402.84 nm  f=0.0000  <S**2>=2.000
     185 ->187        -0.66824

 Excited State   4:      Triplet-A      3.3982 eV  364.85 nm  f=0.0000  <S**2>=2.000
     182 ->187         0.26695
     182 ->192        -0.10908
     183 ->187         0.50747
     183 ->192        -0.11156
     184 ->187         0.22043

 Optimization completed.
    -- Stationary point found.

                         Standard orientation:
 ---------------------------------------------------------------------
 Center     Atomic      Atomic             Coordinates (Angstroms)
 Number     Number       Type             X           Y           Z
 ---------------------------------------------------------------------
      1          6           0        1.857129    1.515629    0.684191
      2          6           0        2.445434    0.073805   -0.956223
      3          6           0        1.174932    2.212854    1.682590
      4          6           0        3.226248    1.744591    0.411631
      5          6           0        2.416306   -0.843427   -2.004323
      6          6           0        3.604227    0.812969   -0.638371
      7          6           0        1.880613    3.186160    2.382460
      8          1           0        0.130298    2.020586    1.890243
      9          6           0        3.916410    2.710418    1.134247
     10          6           0        3.607813   -1.069846   -2.692213
     11          1           0        1.500383   -1.349253   -2.283618
     12          6           0        4.779446    0.582581   -1.345792
     13          6           0        3.232256    3.435716    2.112725
     14          1           0        1.369655    3.760050    3.147069
     15          1           0        4.967980    2.897176    0.945571
     16          6           0        4.776519   -0.373999   -2.364196
     17          1           0        3.620926   -1.792106   -3.500536
     18          1           0        5.679997    1.143996   -1.121123
     19          6           0        0.084404   -0.037148   -0.127957
     20          6           0       -1.018047    0.728722   -0.708589
     21          6           0       -2.092271    0.088992   -1.246623
     22          6           0       -2.191838   -1.345521   -1.213629
     23          6           0       -1.176222   -2.116789   -0.601448
     24          6           0       -0.064942   -1.494597   -0.090997
     25          7           0        1.389806    0.488877   -0.129853
     26         16           0       -3.706852   -2.108074   -1.655881
     27          8           0       -4.304070   -1.335868   -2.750757
     28          8           0       -3.464869   -3.550821   -1.777053
     29          1           0        3.757033    4.199228    2.676427
     30          1           0        5.687008   -0.566214   -2.920938
     31          1           0       -2.880842    0.671624   -1.708708
     32          1           0       -1.307165   -3.187333   -0.498295
     33          6           0       -5.484647   -2.563911    1.964064
     34          6           0       -4.734225   -2.801958    0.815165
     35          6           0       -4.750627   -1.859449   -0.213970
     36          6           0       -5.506678   -0.690271   -0.113175
     37          6           0       -6.250140   -0.461020    1.042779
     38          6           0       -6.236633   -1.393519    2.080847
     39          1           0       -5.486431   -3.294090    2.766359
     40          1           0       -4.154926   -3.710995    0.700962
     41          1           0       -5.524437    0.011365   -0.939148
     42          1           0       -6.845834    0.441544    1.128362
     43          1           0       -6.818899   -1.212343    2.978255
     44          6           0       -2.676612    4.924202    1.848622
     45          6           0       -3.090583    3.589196    1.987758
     46          6           0       -2.583047    2.583596    1.170462
     47          6           0       -1.643321    2.952944    0.206715
     48          6           0       -1.209338    4.290212    0.052720
     49          6           0       -1.739863    5.280927    0.884223
     50          1           0       -3.095844    5.684083    2.499383
     51          1           0       -3.825283    3.334386    2.744644
     52          1           0       -2.909299    1.553965    1.267816
     53          1           0       -1.422271    6.313414    0.780128
     54          6           0       -0.111989    2.950710   -1.455722
     55          6           0        0.741881    2.588416   -2.497582
     56          6           0        1.508034    3.592741   -3.077652
     57          6           0        1.416966    4.925696   -2.643725
     58          6           0        0.548240    5.280749   -1.618415
     59          6           0       -0.227945    4.287978   -1.012681
     60          1           0        0.804919    1.562399   -2.841182
     61          1           0        2.186310    3.338728   -3.885362
     62          1           0        2.027294    5.685342   -3.120161
     63          1           0        0.473163    6.312852   -1.291669
     64          7           0       -0.969588    2.147066   -0.707480
     65          6           0        3.341545   -5.379261   -0.738484
     66          6           0        2.274157   -5.017940   -1.571942
     67          6           0        1.405926   -3.984915   -1.230652
     68          6           0        1.634382   -3.322683   -0.021934
     69          6           0        2.711370   -3.672052    0.826490
     70          6           0        3.568278   -4.707875    0.461610
     71          1           0        3.998091   -6.190816   -1.032367
     72          1           0        2.114301   -5.554655   -2.500587
     73          1           0        0.579312   -3.715531   -1.876607
     74          1           0        4.402062   -4.983233    1.098459
     75          6           0        1.562311   -1.913960    1.754784
     76          6           0        1.161286   -0.981075    2.709512
     77          6           0        1.936405   -0.867645    3.861353
     78          6           0        3.054515   -1.685315    4.068891
     79          6           0        3.416175   -2.650761    3.130099
     80          6           0        2.661698   -2.771926    1.964511
     81          1           0        0.276708   -0.374959    2.559323
     82          1           0        1.659552   -0.136391    4.612508
     83          1           0        3.634619   -1.577231    4.978678
     84          1           0        4.265094   -3.302140    3.308377
     85          7           0        0.960073   -2.229998    0.528957
 ---------------------------------------------------------------------

 The electronic state is 1-A.
 Alpha  occ. eigenvalues --  -89.23365 -19.23496 -19.23340 -14.47914 -14.47756
 Alpha  occ. eigenvalues --  -14.47380 -10.35673 -10.35109 -10.34954 -10.32944
 Alpha  occ. eigenvalues --  -10.31314 -10.31264 -10.31183 -10.30990 -10.30917
 Alpha  occ. eigenvalues --  -10.30786 -10.30746 -10.30454 -10.30275 -10.29782
 Alpha  occ. eigenvalues --  -10.29755 -10.29486 -10.29279 -10.29255 -10.27321
 Alpha  occ. eigenvalues --  -10.27208 -10.27207 -10.27183 -10.27179 -10.27125
 Alpha  occ. eigenvalues --  -10.27119 -10.27039 -10.27030 -10.26979 -10.26968
 Alpha  occ. eigenvalues --  -10.26943 -10.26924 -10.26805 -10.26789 -10.26771
 Alpha  occ. eigenvalues --  -10.26667 -10.26643 -10.26619 -10.26511 -10.26505
 Alpha  occ. eigenvalues --  -10.26493 -10.26431 -10.26406 -10.26344 -10.26344
 Alpha  occ. eigenvalues --  -10.26279 -10.26173 -10.25857 -10.25818  -8.21791
 Alpha  occ. eigenvalues --   -6.16755  -6.16713  -6.16644  -1.17074  -1.08034
 Alpha  occ. eigenvalues --   -1.06665  -1.06605  -1.05433  -0.96144  -0.94517
 Alpha  occ. eigenvalues --   -0.92452  -0.91661  -0.91145  -0.91103  -0.90801
 Alpha  occ. eigenvalues --   -0.90747  -0.86674  -0.86598  -0.84703  -0.84299
 Alpha  occ. eigenvalues --   -0.83270  -0.82984  -0.82733  -0.81629  -0.81421
 Alpha  occ. eigenvalues --   -0.81176  -0.79841  -0.78621  -0.78289  -0.78120
 Alpha  occ. eigenvalues --   -0.77934  -0.77809  -0.75141  -0.72249  -0.71975
 Alpha  occ. eigenvalues --   -0.70315  -0.68953  -0.68881  -0.68587  -0.67146
 Alpha  occ. eigenvalues --   -0.66763  -0.66633  -0.66500  -0.65376  -0.64010
 Alpha  occ. eigenvalues --   -0.63686  -0.63547  -0.63423  -0.62983  -0.61259
 Alpha  occ. eigenvalues --   -0.60150  -0.58942  -0.58876  -0.57829  -0.57536
 Alpha  occ. eigenvalues --   -0.57397  -0.57180  -0.56369  -0.55879  -0.55476
 Alpha  occ. eigenvalues --   -0.55382  -0.54303  -0.53334  -0.52014  -0.51783
 Alpha  occ. eigenvalues --   -0.51505  -0.51321  -0.51218  -0.51011  -0.50921
 Alpha  occ. eigenvalues --   -0.50544  -0.50346  -0.50196  -0.49830  -0.49567
 Alpha  occ. eigenvalues --   -0.49398  -0.49244  -0.48996  -0.48490  -0.48144
 Alpha  occ. eigenvalues --   -0.47765  -0.47634  -0.47553  -0.47400  -0.47136
 Alpha  occ. eigenvalues --   -0.46999  -0.46893  -0.46664  -0.45438  -0.45092
 Alpha  occ. eigenvalues --   -0.44328  -0.43714  -0.42034  -0.41950  -0.41945
 Alpha  occ. eigenvalues --   -0.41814  -0.41666  -0.41600  -0.41463  -0.41409
 Alpha  occ. eigenvalues --   -0.41010  -0.40412  -0.39661  -0.39450  -0.39263
 Alpha  occ. eigenvalues --   -0.39178  -0.39039  -0.38824  -0.38708  -0.38502
 Alpha  occ. eigenvalues --   -0.38220  -0.37912  -0.37459  -0.35933  -0.35063
 Alpha  occ. eigenvalues --   -0.34507  -0.34053  -0.33561  -0.33197  -0.32649
 Alpha  occ. eigenvalues --   -0.32560  -0.31581  -0.30893  -0.30430  -0.29645
 Alpha  occ. eigenvalues --   -0.26567  -0.26497  -0.26089  -0.25641  -0.25379
 Alpha  occ. eigenvalues --   -0.24440
 Alpha virt. eigenvalues --   -0.03858   0.00682   0.01547   0.01773   0.02003
 Alpha virt. eigenvalues --    0.02461   0.02912   0.05206   0.05422   0.06021
 Alpha virt. eigenvalues --    0.07648   0.07733   0.08019   0.09166   0.09588

 Mulliken charges:
               1
     1  C    0.316864
     2  C    0.298104
     3  C   -0.125363
     4  C    0.033434
     5  C   -0.132002
     6  C    0.037977
     7  C   -0.149860
     8  H    0.122745
     9  C   -0.168982
    10  C   -0.144408
    11  H    0.125719
    12  C   -0.173701
    13  C   -0.151327
    14  H    0.135583
    15  H    0.135555
    16  C   -0.150092
    17  H    0.137149
    18  H    0.138512
    19  C    0.181435
    20  C    0.207498
    21  C   -0.111183
    22  C   -0.227938
    23  C   -0.124796
    24  C    0.215284
    25  N   -0.697759
    26  S    1.183803
    27  O   -0.570753
    28  O   -0.571023
    29  H    0.127686
    30  H    0.131444
    31  H    0.196132
    32  H    0.203452
    33  C   -0.134544
    34  C   -0.115893
    35  C   -0.196279
    36  C   -0.118499
    37  C   -0.136939
    38  C   -0.124369
    39  H    0.154140
    40  H    0.178962
    41  H    0.180168
    42  H    0.154526
    43  H    0.151493
    44  C   -0.154387
    45  C   -0.146917
    46  C   -0.168749
    47  C    0.287952
    48  C    0.033710
    49  C   -0.166492
    50  H    0.131321
    51  H    0.131830
    52  H    0.140219
    53  H    0.139385
    54  C    0.305011
    55  C   -0.133362
    56  C   -0.145469
    57  C   -0.150872
    58  C   -0.162634
    59  C    0.028104
    60  H    0.135950
    61  H    0.138134
    62  H    0.130386
    63  H    0.135110
    64  N   -0.734080
    65  C   -0.151726
    66  C   -0.147125
    67  C   -0.157077
    68  C    0.312652
    69  C    0.023995
    70  C   -0.166699
    71  H    0.132571
    72  H    0.138123
    73  H    0.142444
    74  H    0.138870
    75  C    0.302144
    76  C   -0.124962
    77  C   -0.141691
    78  C   -0.149577
    79  C   -0.169061
    80  C    0.027717
    81  H    0.125933
    82  H    0.136706
    83  H    0.132378
    84  H    0.137977
    85  N   -0.739696
 Sum of Mulliken charges =  -0.00000

 Dipole moment (field-independent basis, Debye):
    X=              0.8191    Y=              1.5600    Z=              4.4652  Tot=              4.8002
 Quadrupole moment (field-independent basis, Debye-Ang):
   XX=           -290.3467   YY=           -302.8184   ZZ=           -305.8962
   XY=            -10.6947   XZ=            -29.3808   YZ=             -1.5908

 Normal termination of Gaussian 16 at Sat Nov  2 04:55:50 2024.
