 Gaussian 16, Revision C.01,
 Gaussian 16:  ES64L-G16RevC.01  3-Jul-2019

 ----------------------------------------------------------------------
 #p opt=Restart wB97XD/6-31G** iop(3/107=0136000000,3/108=0136000000) T
 DA=(triplets, nstates=4, root=1)
 ----------------------------------------------------------------------

 SCF Done:  E(RwB97XD) =  -2044.00665325     A.U. after   12 cycles
 SCF Done:  E(RwB97XD) =  -2044.00755624     A.U. after   12 cycles
 SCF Done:  E(RwB97XD) =  -2044.00679857     A.U. after   12 cycles
 SCF Done:  E(RwB97XD) =  -2044.00712454     A.U. after   13 cycles
 SCF Done:  E(RwB97XD) =  -2044.00747116     A.U. after   13 cycles
 SCF Done:  E(RwB97XD) =  -2044.00525351     A.U. after   13 cycles
 SCF Done:  E(RwB97XD) =  -2044.00647675     A.U. after   13 cycles
 SCF Done:  E(RwB97XD) =  -2044.00266272     A.U. after   14 cycles
 SCF Done:  E(RwB97XD) =  -2043.99412255     A.U. after   14 cycles
 SCF Done:  E(RwB97XD) =  -2044.00550107     A.U. after    9 cycles
 SCF Done:  E(RwB97XD) =  -2044.00528375     A.U. after   13 cycles
 SCF Done:  E(RwB97XD) =  -2044.00538715     A.U. after   11 cycles
 SCF Done:  E(RwB97XD) =  -2044.00515502     A.U. after   11 cycles
 SCF Done:  E(RwB97XD) =  -2044.00508477     A.U. after   10 cycles
 SCF Done:  E(RwB97XD) =  -2044.00507823     A.U. after    8 cycles
 SCF Done:  E(RwB97XD) =  -2044.00505675     A.U. after    7 cycles
 SCF Done:  E(RwB97XD) =  -2044.00506943     A.U. after    6 cycles
 SCF Done:  E(RwB97XD) =  -2044.00510559     A.U. after    6 cycles
 SCF Done:  E(RwB97XD) =  -2044.00521256     A.U. after    7 cycles
 SCF Done:  E(RwB97XD) =  -2044.00517960     A.U. after    6 cycles

 Excitation energies and oscillator strengths:

 Excited State   1:      Triplet-A      2.6060 eV  475.77 nm  f=0.0000  <S**2>=2.000
     133 ->144        -0.11757
     138 ->144         0.25092
     142 ->144        -0.11704
     143 ->144         0.58369
     143 ->148         0.13040
 This state for optimization and/or second-order correction.
 Total Energy, E(CIS/TDA) =  -2043.90941164
 Copying the excited state density for this state as the 1-particle RhoCI density.

 Excited State   2:      Triplet-A      3.2591 eV  380.43 nm  f=0.0000  <S**2>=2.000
     132 ->144         0.14625
     142 ->144         0.63418
     142 ->148         0.12378
     143 ->144         0.14018

 Excited State   3:      Triplet-A      3.5712 eV  347.18 nm  f=0.0000  <S**2>=2.000
     140 ->144         0.12046
     140 ->146        -0.29296
     140 ->147        -0.27360
     141 ->144         0.16287
     141 ->145         0.14860
     141 ->146        -0.34734
     142 ->151        -0.11222
     143 ->146         0.16556
     143 ->150        -0.14402

 Excited State   4:      Triplet-A      3.5903 eV  345.34 nm  f=0.0000  <S**2>=2.000
     140 ->144         0.10235
     140 ->145         0.17045
     140 ->146        -0.31381
     140 ->147         0.15072
     141 ->145        -0.22545
     141 ->147        -0.39628
     142 ->150         0.12975
     143 ->147         0.11403
     143 ->151         0.13248

 Optimization completed.
    -- Stationary point found.

                         Standard orientation:
 ---------------------------------------------------------------------
 Center     Atomic      Atomic             Coordinates (Angstroms)
 Number     Number       Type             X           Y           Z
 ---------------------------------------------------------------------
      1          6           0       -0.350358   -1.439406   -0.294251
      2          6           0        0.271913   -0.262721   -0.920217
      3          6           0        1.579788   -0.307836   -1.311191
      4          6           0        2.349008   -1.486986   -1.080964
      5          6           0        1.732126   -2.686565   -0.565846
      6          6           0        0.419921   -2.678945   -0.226980
      7         16           0        4.087362   -1.410034   -1.302701
      8          8           0        4.372199   -0.528911   -2.439604
      9          1           0        2.016772    0.513421   -1.867669
     10          1           0        2.334013   -3.584280   -0.483382
     11          1           0       -0.055727   -3.568225    0.171546
     12          7           0       -0.515677    0.876577   -1.143623
     13          6           0       -1.840883    0.887391   -1.601659
     14          6           0       -0.167185    2.184459   -0.783949
     15          6           0       -2.589680   -0.154536   -2.146736
     16          6           0       -2.352261    2.196971   -1.503737
     17          6           0        1.022975    2.664672   -0.233982
     18          6           0       -1.284809    3.025778   -0.977819
     19          6           0       -3.895674    0.125804   -2.533713
     20          1           0       -2.168014   -1.145479   -2.264212
     21          6           0       -3.660417    2.459980   -1.911384
     22          6           0        1.080793    4.014266    0.098986
     23          1           0        1.872187    2.013063   -0.064114
     24          6           0       -1.201245    4.376209   -0.640252
     25          6           0       -4.430736    1.416246   -2.413917
     26          1           0       -4.505699   -0.671663   -2.944041
     27          1           0       -4.067238    3.463560   -1.842398
     28          6           0       -0.013461    4.865948   -0.106363
     29          1           0        1.996403    4.412404    0.523659
     30          1           0       -2.053947    5.031714   -0.783685
     31          1           0       -5.450885    1.603879   -2.731005
     32          1           0        0.066933    5.914886    0.157709
     33          7           0       -1.448377   -1.287926    0.550248
     34          6           0       -2.593350   -2.091875    0.514193
     35          6           0       -1.658370   -0.281364    1.505507
     36          6           0       -2.861773   -3.181348   -0.314058
     37          6           0       -3.553284   -1.579099    1.413095
     38          6           0       -0.758939    0.674761    1.972557
     39          6           0       -2.955992   -0.412546    2.043083
     40          6           0       -4.108780   -3.788506   -0.190349
     41          1           0       -2.133218   -3.535525   -1.034076
     42          6           0       -4.797530   -2.193773    1.511824
     43          6           0       -1.216356    1.567408    2.937310
     44          1           0        0.259665    0.718508    1.607760
     45          6           0       -3.389234    0.479813    3.018887
     46          6           0       -5.064113   -3.306140    0.713403
     47          1           0       -4.345455   -4.644274   -0.813255
     48          1           0       -5.551958   -1.808423    2.189517
     49          6           0       -2.517164    1.480073    3.448895
     50          1           0       -0.545714    2.337719    3.301260
     51          1           0       -4.383631    0.394502    3.444319
     52          1           0       -6.028901   -3.796749    0.782660
     53          1           0       -2.843253    2.187684    4.203339
     54          8           0        4.615956   -2.775796   -1.241434
     55          6           0        4.637054   -0.544391    0.170663
     56          6           0        4.742553    0.847105    0.142470
     57          6           0        4.876175   -1.265724    1.340572
     58          6           0        5.085203    1.524263    1.310587
     59          1           0        4.581966    1.376404   -0.790484
     60          6           0        5.221114   -0.578186    2.501011
     61          1           0        4.805467   -2.347648    1.327913
     62          6           0        5.319596    0.813977    2.488444
     63          1           0        5.180501    2.605100    1.298383
     64          1           0        5.417412   -1.128945    3.414841
     65          1           0        5.587910    1.344958    3.395857
 ---------------------------------------------------------------------

 The electronic state is 1-A.
 Alpha  occ. eigenvalues --  -89.23545 -19.23707 -19.23557 -14.48762 -14.48555
 Alpha  occ. eigenvalues --  -10.35962 -10.35107 -10.32688 -10.31809 -10.31783
 Alpha  occ. eigenvalues --  -10.31732 -10.31626 -10.31462 -10.31319 -10.31138
 Alpha  occ. eigenvalues --  -10.31038 -10.30236 -10.30215 -10.29978 -10.29837
 Alpha  occ. eigenvalues --  -10.29763 -10.28269 -10.28161 -10.28117 -10.28076
 Alpha  occ. eigenvalues --  -10.28070 -10.28063 -10.27984 -10.27983 -10.27919
 Alpha  occ. eigenvalues --  -10.27833 -10.27807 -10.27773 -10.27689 -10.27659
 Alpha  occ. eigenvalues --  -10.27592 -10.27486 -10.27402 -10.27288 -10.27160
 Alpha  occ. eigenvalues --  -10.26979  -8.21996  -6.16965  -6.16915  -6.16849
 Alpha  occ. eigenvalues --   -1.17408  -1.08524  -1.06970  -1.06715  -0.96174
 Alpha  occ. eigenvalues --   -0.95092  -0.92811  -0.92349  -0.92242  -0.91945
 Alpha  occ. eigenvalues --   -0.87253  -0.86851  -0.85467  -0.84162  -0.83851
 Alpha  occ. eigenvalues --   -0.83496  -0.82550  -0.82385  -0.80690  -0.79214
 Alpha  occ. eigenvalues --   -0.79118  -0.78963  -0.75639  -0.72648  -0.71751
 Alpha  occ. eigenvalues --   -0.70271  -0.69471  -0.69328  -0.67742  -0.67537
 Alpha  occ. eigenvalues --   -0.66895  -0.66074  -0.64899  -0.64273  -0.63888
 Alpha  occ. eigenvalues --   -0.61922  -0.61036  -0.59279  -0.58946  -0.58385
 Alpha  occ. eigenvalues --   -0.58099  -0.56874  -0.56311  -0.55690  -0.54557
 Alpha  occ. eigenvalues --   -0.53790  -0.53355  -0.52462  -0.52265  -0.52199
 Alpha  occ. eigenvalues --   -0.52093  -0.51948  -0.51255  -0.50748  -0.50530
 Alpha  occ. eigenvalues --   -0.50331  -0.50091  -0.49769  -0.49601  -0.48801
 Alpha  occ. eigenvalues --   -0.48660  -0.48518  -0.48228  -0.47860  -0.47788
 Alpha  occ. eigenvalues --   -0.45533  -0.44883  -0.44457  -0.44146  -0.42780
 Alpha  occ. eigenvalues --   -0.42738  -0.42644  -0.42440  -0.42380  -0.42333
 Alpha  occ. eigenvalues --   -0.41670  -0.40527  -0.40307  -0.39967  -0.39778
 Alpha  occ. eigenvalues --   -0.39624  -0.39354  -0.38695  -0.37731  -0.36158
 Alpha  occ. eigenvalues --   -0.35188  -0.34736  -0.34529  -0.34198  -0.33496
 Alpha  occ. eigenvalues --   -0.32967  -0.31629  -0.31616  -0.30923  -0.27553
 Alpha  occ. eigenvalues --   -0.26909  -0.26328  -0.25226
 Alpha virt. eigenvalues --   -0.02545   0.01909   0.02055   0.02313   0.02346
 Alpha virt. eigenvalues --    0.03689   0.05168   0.06119   0.07985   0.08408
 Alpha virt. eigenvalues --    0.09430   0.09957   0.12417   0.13213   0.15183

 Mulliken charges:
               1
     1  C    0.174340
     2  C    0.236579
     3  C   -0.137434
     4  C   -0.229669
     5  C   -0.111196
     6  C   -0.124982
     7  S    1.179136
     8  O   -0.572258
     9  H    0.198048
    10  H    0.184988
    11  H    0.165631
    12  N   -0.737323
    13  C    0.301564
    14  C    0.302211
    15  C   -0.121990
    16  C    0.024318
    17  C   -0.143067
    18  C    0.028976
    19  C   -0.141499
    20  H    0.125853
    21  C   -0.162553
    22  C   -0.147240
    23  H    0.121646
    24  C   -0.160771
    25  C   -0.147164
    26  H    0.134940
    27  H    0.133923
    28  C   -0.149364
    29  H    0.127520
    30  H    0.136038
    31  H    0.129358
    32  H    0.129395
    33  N   -0.698873
    34  C    0.307779
    35  C    0.299322
    36  C   -0.158755
    37  C    0.029937
    38  C   -0.118833
    39  C    0.029259
    40  C   -0.145184
    41  H    0.131763
    42  C   -0.163046
    43  C   -0.141095
    44  H    0.128331
    45  C   -0.166992
    46  C   -0.149594
    47  H    0.133659
    48  H    0.136741
    49  C   -0.146815
    50  H    0.134865
    51  H    0.134916
    52  H    0.130178
    53  H    0.128869
    54  O   -0.567279
    55  C   -0.196961
    56  C   -0.119935
    57  C   -0.110624
    58  C   -0.133901
    59  H    0.177560
    60  C   -0.130918
    61  H    0.173612
    62  C   -0.120927
    63  H    0.147912
    64  H    0.149622
    65  H    0.147453
 Sum of Mulliken charges =  -0.00000

 Dipole moment (field-independent basis, Debye):
    X=             -2.8527    Y=              1.5381    Z=              4.5204  Tot=              5.5622
 Quadrupole moment (field-independent basis, Debye-Ang):
   XX=           -236.7247   YY=           -221.6464   ZZ=           -241.5927
   XY=             15.7623   XZ=             25.3740   YZ=              3.2210

 Normal termination of Gaussian 16 at Tue Aug 20 01:08:56 2024.
