 Gaussian 16, Revision C.01,
 Gaussian 16:  ES64L-G16RevC.01  3-Jul-2019

 ----------------------------------------------------------------------
 #p opt=Restart wb97xd/6-31G** iop(3/107=0109400000,3/108=0109400000) T
 DA=(singlets, nstates=4, root=1)
 ----------------------------------------------------------------------

 SCF Done:  E(RwB97XD) =  -3503.69825437     A.U. after   11 cycles
 SCF Done:  E(RwB97XD) =  -3503.69821685     A.U. after   10 cycles
 SCF Done:  E(RwB97XD) =  -3503.69820595     A.U. after   12 cycles
 SCF Done:  E(RwB97XD) =  -3503.69821150     A.U. after   12 cycles
 SCF Done:  E(RwB97XD) =  -3503.69822112     A.U. after   10 cycles
 SCF Done:  E(RwB97XD) =  -3503.69827651     A.U. after   11 cycles
 SCF Done:  E(RwB97XD) =  -3503.69824685     A.U. after   10 cycles
 SCF Done:  E(RwB97XD) =  -3503.69842370     A.U. after   11 cycles
 SCF Done:  E(RwB97XD) =  -3503.69833599     A.U. after   10 cycles
 SCF Done:  E(RwB97XD) =  -3503.69832688     A.U. after    7 cycles
 SCF Done:  E(RwB97XD) =  -3503.69830774     A.U. after    7 cycles
 SCF Done:  E(RwB97XD) =  -3503.69830748     A.U. after    6 cycles
 SCF Done:  E(RwB97XD) =  -3503.69831228     A.U. after    7 cycles
 SCF Done:  E(RwB97XD) =  -3503.69831444     A.U. after    5 cycles
 SCF Done:  E(RwB97XD) =  -3503.69831367     A.U. after    5 cycles
 SCF Done:  E(RwB97XD) =  -3503.69831287     A.U. after    5 cycles

 Excitation energies and oscillator strengths:

 Excited State   1:      Singlet-A      2.2404 eV  553.41 nm  f=0.0054  <S**2>=0.000
     282 -> 283       -0.69713
 This state for optimization and/or second-order correction.
 Total Energy, E(CIS/TDA) =  -3503.61598038
 Copying the excited state density for this state as the 1-particle RhoCI density.

 Excited State   2:      Singlet-A      2.7822 eV  445.64 nm  f=0.0053  <S**2>=0.000
     279 -> 283        0.24064
     281 -> 283       -0.64995

 Excited State   3:      Singlet-A      2.9008 eV  427.41 nm  f=0.0092  <S**2>=0.000
     279 -> 283       -0.62528
     280 -> 283       -0.17620
     281 -> 283       -0.24949

 Excited State   4:      Singlet-A      3.0308 eV  409.07 nm  f=0.0017  <S**2>=0.000
     279 -> 283        0.18730
     280 -> 283       -0.67591

 Optimization completed.
    -- Stationary point found.

                         Standard orientation:
 ---------------------------------------------------------------------
 Center     Atomic      Atomic             Coordinates (Angstroms)
 Number     Number       Type             X           Y           Z
 ---------------------------------------------------------------------
      1          6           0       -3.301999    2.500419    0.613580
      2          6           0       -3.234866    2.097262   -1.600723
      3          6           0       -3.059997    2.534853    1.983675
      4          6           0       -4.371767    3.227287    0.041774
      5          6           0       -2.911605    1.652950   -2.879392
      6          6           0       -4.329428    2.966748   -1.384672
      7          6           0       -3.905433    3.309360    2.774554
      8          1           0       -2.235147    1.981249    2.418540
      9          6           0       -5.200372    3.993025    0.861571
     10          6           0       -3.701312    2.089838   -3.940417
     11          1           0       -2.066333    0.993448   -3.042431
     12          6           0       -5.100618    3.385482   -2.468449
     13          6           0       -4.982273    4.047965    2.243130
     14          1           0       -3.710459    3.335585    3.839928
     15          1           0       -6.018325    4.548897    0.413011
     16          6           0       -4.801052    2.954252   -3.766152
     17          1           0       -3.443103    1.743744   -4.934107
     18          1           0       -5.937964    4.054279   -2.292933
     19          6           0       -1.500070    0.966325   -0.196267
     20          6           0       -1.670728   -0.418933   -0.051717
     21          6           0       -0.593396   -1.245371    0.177062
     22          6           0        0.783488   -0.776165    0.242859
     23          6           0        0.902136    0.666075    0.072108
     24          6           0       -0.178378    1.480027   -0.152124
     25          6           0       -1.270900   -3.306395    1.421566
     26          6           0       -0.828685   -3.547375   -0.762836
     27          6           0       -1.439213   -2.788314    2.705568
     28          6           0       -1.475783   -4.679252    1.130610
     29          6           0       -0.475149   -3.311970   -2.088017
     30          6           0       -1.181852   -4.836778   -0.295262
     31          6           0       -1.827411   -3.676315    3.707117
     32          1           0       -1.247115   -1.744375    2.913315
     33          6           0       -1.860794   -5.533040    2.138153
     34          6           0       -0.478671   -4.405981   -2.955366
     35          1           0       -0.203546   -2.319454   -2.421576
     36          6           0       -1.176705   -5.898883   -1.171789
     37          6           0       -2.044705   -5.040434    3.459263
     38          1           0       -1.950291   -3.284707    4.707488
     39          1           0       -2.015928   -6.584903    1.926074
     40          6           0       -0.819696   -5.699141   -2.531665
     41          1           0       -0.202944   -4.233844   -3.987073
     42          1           0       -1.440016   -6.890298   -0.820480
     43          6           0        2.807759    1.987212    1.052740
     44          6           0        3.013694    1.310444   -1.085171
     45          6           0        2.377240    2.216959    2.359015
     46          6           0        4.044139    2.485665    0.591705
     47          6           0        2.813201    0.764776   -2.348672
     48          6           0        4.180320    2.048140   -0.782285
     49          6           0        3.211534    2.952665    3.188476
     50          1           0        1.440472    1.808357    2.716880
     51          6           0        4.861743    3.224530    1.453548
     52          6           0        3.810882    0.947846   -3.302265
     53          1           0        1.910393    0.210468   -2.577906
     54          6           0        5.162573    2.210016   -1.757931
     55          6           0        4.459315    3.469756    2.765982
     56          1           0        2.883148    3.127821    4.208156
     57          1           0        5.809714    3.596697    1.083258
     58          6           0        4.997845    1.658632   -3.033712
     59          1           0        3.651717    0.519715   -4.284729
     60          1           0        6.059037    2.772565   -1.515171
     61          6           0       -5.911769    4.904813    3.122810
     62          6           0       -5.669467    3.436138   -4.943184
     63          7           0       -2.617567    1.817236   -0.386462
     64          7           0       -0.891572   -2.648611    0.278461
     65          7           0        2.197417    1.260017    0.037174
     66          6           0       -2.460648   -6.022590    4.561351
     67          6           0       -0.816585   -6.905814   -3.480100
     68          6           0        6.101395    1.853813   -4.089644
     69          6           0        5.317756    4.267677    3.762593
     70         16           0        1.894135   -1.628734    1.332648
     71          6           0        3.547131   -1.350852    0.694265
     72          6           0        3.883746   -1.854177   -0.562375
     73          6           0        4.487065   -0.710559    1.496669
     74          6           0        5.183612   -1.691461   -1.030831
     75          1           0        3.133183   -2.355546   -1.161844
     76          6           0        5.788348   -0.558547    1.019529
     77          1           0        4.190737   -0.329306    2.466128
     78          6           0        6.134181   -1.042791   -0.240522
     79          1           0        5.452577   -2.061500   -2.013772
     80          1           0        6.524287   -0.046765    1.629459
     81          1           0        7.144868   -0.911468   -0.611405
     82          8           0        1.863894   -1.082387    2.706328
     83          8           0        1.628555   -3.073626    1.170872
     84          1           0       -0.009231    2.537059   -0.326429
     85          1           0       -2.665221   -0.845031   -0.134421
     86          6           0       -5.609345    4.977928   -5.030012
     87          1           0       -6.219059    5.340184   -5.865190
     88          1           0       -5.982558    5.449958   -4.116930
     89          1           0       -4.580796    5.317654   -5.183845
     90          6           0       -7.132474    2.991077   -4.720322
     91          1           0       -7.546834    3.407981   -3.798156
     92          1           0       -7.766266    3.323434   -5.549982
     93          1           0       -7.200207    1.901007   -4.652911
     94          6           0       -5.199062    2.865222   -6.293161
     95          1           0       -4.174932    3.171035   -6.528854
     96          1           0       -5.245523    1.771693   -6.310264
     97          1           0       -5.845827    3.234854   -7.094983
     98          6           0       -7.364916    4.397632    2.983937
     99          1           0       -8.041538    4.994434    3.605625
    100          1           0       -7.719605    4.461470    1.951451
    101          1           0       -7.442665    3.352605    3.298933
    102          6           0       -5.836844    6.379499    2.666829
    103          1           0       -6.149708    6.498053    1.625700
    104          1           0       -6.489718    7.006532    3.284150
    105          1           0       -4.814786    6.760249    2.752758
    106          6           0       -5.528491    4.847604    4.612618
    107          1           0       -5.588914    3.829041    5.008913
    108          1           0       -4.516441    5.226112    4.786679
    109          1           0       -6.216823    5.468738    5.194213
    110          6           0        4.531492    5.507266    4.245743
    111          1           0        3.601760    5.227750    4.748882
    112          1           0        5.130759    6.090122    4.954021
    113          1           0        4.272479    6.154290    3.402340
    114          6           0        5.664731    3.373680    4.974576
    115          1           0        4.767385    3.030581    5.496675
    116          1           0        6.222958    2.488160    4.655538
    117          1           0        6.279245    3.924728    5.695135
    118          6           0        6.636876    4.754751    3.136811
    119          1           0        7.259403    3.919174    2.801249
    120          1           0        6.460419    5.417481    2.283800
    121          1           0        7.212363    5.317179    3.878630
    122          6           0        6.309135    3.363497   -4.346158
    123          1           0        6.612760    3.890666   -3.437559
    124          1           0        7.088512    3.522438   -5.099738
    125          1           0        5.385086    3.825765   -4.705878
    126          6           0        5.755245    1.186655   -5.433007
    127          1           0        5.621849    0.105269   -5.326965
    128          1           0        4.843864    1.605144   -5.871331
    129          1           0        6.568920    1.349804   -6.146621
    130          6           0        7.420518    1.234385   -3.576257
    131          1           0        7.298271    0.162347   -3.395370
    132          1           0        8.221706    1.368731   -4.311532
    133          1           0        7.746784    1.695513   -2.640003
    134          6           0       -0.411655   -6.525169   -4.915066
    135          1           0       -1.102970   -5.800443   -5.355770
    136          1           0        0.600661   -6.112196   -4.957311
    137          1           0       -0.427186   -7.417848   -5.546262
    138          6           0       -2.235406   -7.520011   -3.523921
    139          1           0       -2.249160   -8.380514   -4.199785
    140          1           0       -2.564204   -7.868120   -2.540890
    141          1           0       -2.966444   -6.790892   -3.884923
    142          6           0        0.189417   -7.956922   -2.954929
    143          1           0        1.198794   -7.539601   -2.901768
    144          1           0       -0.076521   -8.319534   -1.958306
    145          1           0        0.210830   -8.821078   -3.625976
    146          6           0       -3.813156   -6.669354    4.180248
    147          1           0       -3.754146   -7.226546    3.241214
    148          1           0       -4.123452   -7.370839    4.960631
    149          1           0       -4.593789   -5.910650    4.073694
    150          6           0       -1.376953   -7.119206    4.691062
    151          1           0       -0.407146   -6.681842    4.943330
    152          1           0       -1.652657   -7.822931    5.482440
    153          1           0       -1.257278   -7.691622    3.767173
    154          6           0       -2.621292   -5.338020    5.930065
    155          1           0       -1.684963   -4.888624    6.273550
    156          1           0       -3.393962   -4.563497    5.910864
    157          1           0       -2.920514   -6.080700    6.674654
 ---------------------------------------------------------------------

 The electronic state is 1-A.
 Alpha  occ. eigenvalues --  -89.22609 -19.22985 -19.21182 -14.47137 -14.47069
 Alpha  occ. eigenvalues --  -14.45380 -10.35548 -10.35491 -10.35227 -10.33482
 Alpha  occ. eigenvalues --  -10.30744 -10.30524 -10.30290 -10.30259 -10.30166
 Alpha  occ. eigenvalues --  -10.30056 -10.29388 -10.28892 -10.28489 -10.27912
 Alpha  occ. eigenvalues --  -10.27903 -10.27670 -10.27648 -10.27585 -10.27536
 Alpha  occ. eigenvalues --  -10.27397 -10.27234 -10.27105 -10.26832 -10.26635
 Alpha  occ. eigenvalues --  -10.26632 -10.26588 -10.26577 -10.26576 -10.26541
 Alpha  occ. eigenvalues --  -10.26490 -10.26437 -10.26411 -10.26409 -10.26378
 Alpha  occ. eigenvalues --  -10.26371 -10.26361 -10.26293 -10.26248 -10.26235
 Alpha  occ. eigenvalues --  -10.26197 -10.26173 -10.26117 -10.26100 -10.26080
 Alpha  occ. eigenvalues --  -10.25421 -10.25332 -10.25320 -10.25120 -10.25101
 Alpha  occ. eigenvalues --  -10.25014 -10.24857 -10.24854 -10.24852 -10.24730
 Alpha  occ. eigenvalues --  -10.24724 -10.24668 -10.24658 -10.24567 -10.24496
 Alpha  occ. eigenvalues --  -10.24482 -10.24466 -10.24455 -10.24445 -10.24420
 Alpha  occ. eigenvalues --  -10.24390 -10.24363 -10.23980 -10.23749 -10.23664
 Alpha  occ. eigenvalues --  -10.23463 -10.23393 -10.23209  -8.20924  -6.15888
 Alpha  occ. eigenvalues --   -6.15866  -6.15770  -1.15316  -1.06638  -1.06246
 Alpha  occ. eigenvalues --   -1.05481  -1.04295  -0.95973  -0.92547  -0.92261
 Alpha  occ. eigenvalues --   -0.91581  -0.91381  -0.91307  -0.90236  -0.89883
 Alpha  occ. eigenvalues --   -0.88419  -0.87786  -0.86974  -0.86835  -0.86216
 Alpha  occ. eigenvalues --   -0.85742  -0.85150  -0.84149  -0.83313  -0.82849
 Alpha  occ. eigenvalues --   -0.82315  -0.81563  -0.81207  -0.80053  -0.80006
 Alpha  occ. eigenvalues --   -0.78750  -0.78630  -0.77845  -0.77545  -0.77495
 Alpha  occ. eigenvalues --   -0.76484  -0.76440  -0.74260  -0.74056  -0.74013
 Alpha  occ. eigenvalues --   -0.73983  -0.73797  -0.73722  -0.73687  -0.73632
 Alpha  occ. eigenvalues --   -0.73617  -0.73244  -0.72996  -0.72712  -0.72572
 Alpha  occ. eigenvalues --   -0.71585  -0.70720  -0.69989  -0.68050  -0.67309
 Alpha  occ. eigenvalues --   -0.67211  -0.67150  -0.66936  -0.66222  -0.65821
 Alpha  occ. eigenvalues --   -0.65064  -0.63665  -0.63190  -0.63160  -0.62959
 Alpha  occ. eigenvalues --   -0.61921  -0.61078  -0.60628  -0.60299  -0.59829
 Alpha  occ. eigenvalues --   -0.59327  -0.59273  -0.59183  -0.58198  -0.57881
 Alpha  occ. eigenvalues --   -0.56966  -0.56770  -0.56651  -0.56323  -0.56044
 Alpha  occ. eigenvalues --   -0.55508  -0.53243  -0.53185  -0.52724  -0.52139
 Alpha  occ. eigenvalues --   -0.52050  -0.51777  -0.51660  -0.51487  -0.51372
 Alpha  occ. eigenvalues --   -0.50598  -0.50394  -0.50192  -0.50107  -0.49925
 Alpha  occ. eigenvalues --   -0.49884  -0.49670  -0.49415  -0.49221  -0.49014
 Alpha  occ. eigenvalues --   -0.48924  -0.48757  -0.48730  -0.48564  -0.48524
 Alpha  occ. eigenvalues --   -0.48380  -0.48312  -0.48001  -0.47997  -0.47924
 Alpha  occ. eigenvalues --   -0.47749  -0.47490  -0.47291  -0.47265  -0.46892
 Alpha  occ. eigenvalues --   -0.46767  -0.46665  -0.46633  -0.46341  -0.46316
 Alpha  occ. eigenvalues --   -0.46142  -0.45693  -0.45612  -0.45437  -0.45166
 Alpha  occ. eigenvalues --   -0.45070  -0.44688  -0.44274  -0.44007  -0.43964
 Alpha  occ. eigenvalues --   -0.43852  -0.43797  -0.43479  -0.43258  -0.43181
 Alpha  occ. eigenvalues --   -0.42731  -0.42551  -0.42387  -0.42314  -0.42257
 Alpha  occ. eigenvalues --   -0.42219  -0.42039  -0.41763  -0.41557  -0.41389
 Alpha  occ. eigenvalues --   -0.41123  -0.41108  -0.41061  -0.40993  -0.40473
 Alpha  occ. eigenvalues --   -0.40438  -0.40309  -0.40225  -0.40079  -0.40036
 Alpha  occ. eigenvalues --   -0.39922  -0.39647  -0.39529  -0.39228  -0.38892
 Alpha  occ. eigenvalues --   -0.38657  -0.38454  -0.38272  -0.37801  -0.37559
 Alpha  occ. eigenvalues --   -0.37414  -0.37343  -0.37168  -0.37093  -0.36905
 Alpha  occ. eigenvalues --   -0.36803  -0.36751  -0.36597  -0.36405  -0.36262
 Alpha  occ. eigenvalues --   -0.36174  -0.36147  -0.35970  -0.35949  -0.35915
 Alpha  occ. eigenvalues --   -0.35601  -0.35234  -0.35004  -0.34761  -0.34644
 Alpha  occ. eigenvalues --   -0.34130  -0.33585  -0.32972  -0.32772  -0.32222
 Alpha  occ. eigenvalues --   -0.31460  -0.30465  -0.30244  -0.29319  -0.29005
 Alpha  occ. eigenvalues --   -0.27698  -0.25924  -0.25811  -0.24811  -0.24735
 Alpha  occ. eigenvalues --   -0.24438  -0.22608
 Alpha virt. eigenvalues --   -0.04405   0.00140   0.01585   0.01652   0.02048
 Alpha virt. eigenvalues --    0.03096   0.04028   0.05098   0.05215   0.06248
 Alpha virt. eigenvalues --    0.07217   0.07536   0.08909   0.09037   0.09269

 Mulliken charges:
               1
     1  C    0.312533
     2  C    0.312351
     3  C   -0.165261
     4  C    0.016874
     5  C   -0.164137
     6  C    0.017046
     7  C   -0.178248
     8  H    0.141175
     9  C   -0.194268
    10  C   -0.177785
    11  H    0.135480
    12  C   -0.194355
    13  C    0.119022
    14  H    0.124248
    15  H    0.124514
    16  C    0.118895
    17  H    0.122892
    18  H    0.124712
    19  C    0.178212
    20  C   -0.080588
    21  C    0.172002
    22  C   -0.228129
    23  C    0.194131
    24  C   -0.088952
    25  C    0.329747
    26  C    0.327006
    27  C   -0.150621
    28  C    0.033842
    29  C   -0.169981
    30  C    0.033683
    31  C   -0.179758
    32  H    0.137062
    33  C   -0.206301
    34  C   -0.180757
    35  H    0.123582
    36  C   -0.205307
    37  C    0.116875
    38  H    0.119412
    39  H    0.120358
    40  C    0.117354
    41  H    0.114529
    42  H    0.123583
    43  C    0.292011
    44  C    0.308952
    45  C   -0.143174
    46  C    0.015026
    47  C   -0.162858
    48  C    0.035243
    49  C   -0.179609
    50  H    0.153313
    51  C   -0.204985
    52  C   -0.181875
    53  H    0.134891
    54  C   -0.195971
    55  C    0.123107
    56  H    0.124416
    57  H    0.121943
    58  C    0.120600
    59  H    0.120638
    60  H    0.122656
    61  C   -0.067538
    62  C   -0.067488
    63  N   -0.767250
    64  N   -0.731248
    65  N   -0.747361
    66  C   -0.066945
    67  C   -0.066932
    68  C   -0.067967
    69  C   -0.073695
    70  S    1.203558
    71  C   -0.212094
    72  C   -0.108394
    73  C   -0.112246
    74  C   -0.125652
    75  H    0.170405
    76  C   -0.132392
    77  H    0.185787
    78  C   -0.121581
    79  H    0.146076
    80  H    0.147311
    81  H    0.144829
    82  O   -0.532962
    83  O   -0.553608
    84  H    0.193651
    85  H    0.198700
    86  C   -0.361808
    87  H    0.123041
    88  H    0.122733
    89  H    0.134545
    90  C   -0.362108
    91  H    0.122844
    92  H    0.123011
    93  H    0.135568
    94  C   -0.384593
    95  H    0.129415
    96  H    0.130609
    97  H    0.126614
    98  C   -0.362096
    99  H    0.122983
   100  H    0.122445
   101  H    0.135792
   102  C   -0.361789
   103  H    0.122413
   104  H    0.123036
   105  H    0.134662
   106  C   -0.384687
   107  H    0.131080
   108  H    0.129824
   109  H    0.126510
   110  C   -0.362922
   111  H    0.124207
   112  H    0.123560
   113  H    0.134602
   114  C   -0.362136
   115  H    0.126839
   116  H    0.130683
   117  H    0.123935
   118  C   -0.378995
   119  H    0.125914
   120  H    0.130083
   121  H    0.126817
   122  C   -0.361975
   123  H    0.123299
   124  H    0.123049
   125  H    0.135641
   126  C   -0.383484
   127  H    0.127152
   128  H    0.131015
   129  H    0.127089
   130  C   -0.362083
   131  H    0.129083
   132  H    0.124342
   133  H    0.122254
   134  C   -0.383850
   135  H    0.128132
   136  H    0.128017
   137  H    0.124049
   138  C   -0.361636
   139  H    0.119401
   140  H    0.123609
   141  H    0.133209
   142  C   -0.361374
   143  H    0.135606
   144  H    0.124916
   145  H    0.118667
   146  C   -0.361236
   147  H    0.121511
   148  H    0.118439
   149  H    0.132545
   150  C   -0.361622
   151  H    0.140210
   152  H    0.117066
   153  H    0.122213
   154  C   -0.385064
   155  H    0.133123
   156  H    0.127772
   157  H    0.122322
 Sum of Mulliken charges =  -0.00000

 Dipole moment (field-independent basis, Debye):
    X=              1.2494    Y=              4.0315    Z=             -2.8504  Tot=              5.0930
 Quadrupole moment (field-independent basis, Debye-Ang):
   XX=           -434.3831   YY=           -467.9489   ZZ=           -445.3695
   XY=              2.9631   XZ=             -8.0668   YZ=             14.1173

 Normal termination of Gaussian 16 at Mon Aug 19 19:50:47 2024.
