 Gaussian 16, Revision C.01,
 Gaussian 16:  ES64L-G16RevC.01  3-Jul-2019

 ----------------------------------------------------------------------
 #p opt wB97XD/6-31G** iop(3/107=0158200000) IOP(3/108=0158200000) TDA=
 (singlets, nstates=4, root=1)
 ----------------------------------------------------------------------

 ------------------------------------------------------------
 Tuning input file generated by xtune with parameters: w01582
 ------------------------------------------------------------
 Symbolic Z-matrix:
 Charge =  0 Multiplicity = 1

 SCF Done:  E(RwB97XD) =  -1527.82787015     A.U. after   16 cycles
 SCF Done:  E(RwB97XD) =  -1527.82209739     A.U. after   14 cycles
 SCF Done:  E(RwB97XD) =  -1527.81693325     A.U. after   14 cycles
 SCF Done:  E(RwB97XD) =  -1527.81273618     A.U. after   15 cycles
 SCF Done:  E(RwB97XD) =  -1527.81397243     A.U. after   14 cycles
 SCF Done:  E(RwB97XD) =  -1527.81512848     A.U. after   12 cycles
 SCF Done:  E(RwB97XD) =  -1527.81506975     A.U. after   12 cycles
 SCF Done:  E(RwB97XD) =  -1527.81497058     A.U. after   12 cycles
 SCF Done:  E(RwB97XD) =  -1527.81445351     A.U. after   13 cycles
 SCF Done:  E(RwB97XD) =  -1527.81429280     A.U. after   12 cycles
 SCF Done:  E(RwB97XD) =  -1527.80737085     A.U. after   15 cycles
 SCF Done:  E(RwB97XD) =  -1527.81032482     A.U. after   13 cycles
 SCF Done:  E(RwB97XD) =  -1527.78713489     A.U. after   16 cycles
 SCF Done:  E(RwB97XD) =  -1527.80647637     A.U. after   13 cycles
 SCF Done:  E(RwB97XD) =  -1527.80420283     A.U. after   13 cycles
 SCF Done:  E(RwB97XD) =  -1527.80396262     A.U. after   13 cycles
 SCF Done:  E(RwB97XD) =  -1527.80440299     A.U. after   10 cycles
 SCF Done:  E(RwB97XD) =  -1527.80418585     A.U. after   10 cycles
 SCF Done:  E(RwB97XD) =  -1527.80420862     A.U. after    7 cycles
 SCF Done:  E(RwB97XD) =  -1527.80421450     A.U. after    7 cycles

 Excitation energies and oscillator strengths:

 Excited State   1:      Singlet-A      3.3019 eV  375.50 nm  f=0.0002  <S**2>=0.000
      89 ->101         0.10556
     100 ->101         0.67602
     100 ->103        -0.14752
 This state for optimization and/or second-order correction.
 Total Energy, E(CIS/TDA) =  -1527.68287302
 Copying the excited state density for this state as the 1-particle RhoCI density.

 Excited State   2:      Singlet-A      4.2161 eV  294.07 nm  f=0.0000  <S**2>=0.000
      99 ->101        -0.68403
      99 ->103         0.13210

 Excited State   3:      Singlet-A      4.4563 eV  278.22 nm  f=0.0589  <S**2>=0.000
      99 ->106         0.24679
     100 ->102        -0.35330
     100 ->104         0.53680

 Excited State   4:      Singlet-A      4.7668 eV  260.10 nm  f=0.0130  <S**2>=0.000
      99 ->104         0.12437
     100 ->102        -0.53430
     100 ->104        -0.32491
     100 ->105         0.25276

 Optimization completed.
    -- Stationary point found.

                         Standard orientation:
 ---------------------------------------------------------------------
 Center     Atomic      Atomic             Coordinates (Angstroms)
 Number     Number       Type             X           Y           Z
 ---------------------------------------------------------------------
      1          6           0        3.088568   -0.911081    0.000098
      2          6           0        3.074833    1.331401   -0.000106
      3          6           0        2.682453   -2.246011    0.000153
      4          6           0        4.449336   -0.515158    0.000260
      5          6           0        2.655654    2.660462   -0.000290
      6          6           0        4.440284    0.951366    0.000131
      7          6           0        3.694208   -3.208934    0.000395
      8          1           0        1.630465   -2.501500    0.000038
      9          6           0        5.431463   -1.482269    0.000496
     10          6           0        3.653846    3.635856   -0.000207
     11          1           0        1.598431    2.894317   -0.000454
     12          6           0        5.411294    1.930920    0.000194
     13          6           0        5.037532   -2.836175    0.000560
     14          1           0        3.429212   -4.259562    0.000459
     15          1           0        6.483962   -1.220203    0.000634
     16          6           0        5.002598    3.278736    0.000025
     17          1           0        3.377370    4.683699   -0.000331
     18          1           0        6.466420    1.680169    0.000357
     19          6           0        0.844171    0.197985   -0.000221
     20          6           0        0.193893   -0.136764    1.241685
     21          6           0       -1.079265   -0.634449    1.230785
     22          6           0       -1.744715   -0.898465   -0.000372
     23          6           0       -1.079032   -0.634680   -1.231438
     24          6           0        0.194138   -0.137005   -1.242197
     25          7           0        2.275656    0.206333   -0.000071
     26         16           0       -3.392568   -1.431843   -0.000483
     27          8           0       -3.670980   -2.100149    1.277708
     28          1           0        5.802013   -3.605276    0.000737
     29          1           0        5.757889    4.056939    0.000077
     30          1           0       -1.589306   -0.855878    2.162135
     31          1           0       -1.588926   -0.856265   -2.162830
     32          1           0        0.712999    0.030535   -2.180665
     33          1           0        0.712571    0.030964    2.180222
     34          8           0       -3.670980   -2.099368   -1.279076
     35          6           0       -4.397258    0.062603    0.000025
     36          6           0       -4.760241    0.644889    1.212818
     37          6           0       -4.759134    0.646454   -1.212356
     38          6           0       -5.488880    1.831135    1.208658
     39          1           0       -4.487594    0.154294    2.140720
     40          6           0       -5.487766    1.832686   -1.207336
     41          1           0       -4.485647    0.157084   -2.140660
     42          6           0       -5.849623    2.427332    0.000884
     43          1           0       -5.782284    2.286701    2.149206
     44          1           0       -5.780289    2.289481   -2.147562
     45          1           0       -6.420256    3.350777    0.001211
 ---------------------------------------------------------------------

 The electronic state is 1-A.
 Alpha  occ. eigenvalues --  -89.24840 -19.24675 -19.24675 -14.48621 -10.36581
 Alpha  occ. eigenvalues --  -10.34265 -10.32640 -10.32639 -10.32543 -10.32332
 Alpha  occ. eigenvalues --  -10.32332 -10.32288 -10.32123 -10.31123 -10.31122
 Alpha  occ. eigenvalues --  -10.30899 -10.30671 -10.30664 -10.28737 -10.28691
 Alpha  occ. eigenvalues --  -10.28631 -10.28617 -10.28574 -10.28516 -10.28412
 Alpha  occ. eigenvalues --  -10.28356 -10.27832 -10.27765  -8.23351  -6.18310
 Alpha  occ. eigenvalues --   -6.18271  -6.18203  -1.18590  -1.08463  -1.08002
 Alpha  occ. eigenvalues --   -0.97313  -0.96137  -0.93228  -0.92884  -0.88296
 Alpha  occ. eigenvalues --   -0.86774  -0.86310  -0.84823  -0.84772  -0.83144
 Alpha  occ. eigenvalues --   -0.80816  -0.80016  -0.76603  -0.72881  -0.71452
 Alpha  occ. eigenvalues --   -0.70536  -0.70311  -0.68451  -0.67440  -0.65972
 Alpha  occ. eigenvalues --   -0.65277  -0.63234  -0.61551  -0.59141  -0.59113
 Alpha  occ. eigenvalues --   -0.57618  -0.57473  -0.55673  -0.54646  -0.54275
 Alpha  occ. eigenvalues --   -0.53193  -0.52971  -0.52841  -0.52489  -0.51263
 Alpha  occ. eigenvalues --   -0.51205  -0.51118  -0.50789  -0.49752  -0.49360
 Alpha  occ. eigenvalues --   -0.49071  -0.48235  -0.47028  -0.45812  -0.44947
 Alpha  occ. eigenvalues --   -0.44284  -0.43148  -0.43108  -0.43018  -0.42766
 Alpha  occ. eigenvalues --   -0.41010  -0.40013  -0.39965  -0.39433  -0.38674
 Alpha  occ. eigenvalues --   -0.37008  -0.36313  -0.35640  -0.35498  -0.34755
 Alpha  occ. eigenvalues --   -0.33647  -0.32853  -0.31679  -0.27810  -0.26059
 Alpha virt. eigenvalues --   -0.02362   0.02626   0.03052   0.03076   0.04267
 Alpha virt. eigenvalues --    0.06331   0.09006   0.10744   0.12420   0.13681
 Alpha virt. eigenvalues --    0.15251   0.15908   0.17494   0.17972   0.18373

 Mulliken charges:
               1
     1  C    0.302330
     2  C    0.301742
     3  C   -0.145905
     4  C    0.033920
     5  C   -0.154276
     6  C    0.031135
     7  C   -0.138333
     8  H    0.135344
     9  C   -0.174313
    10  C   -0.138258
    11  H    0.128098
    12  C   -0.170509
    13  C   -0.147663
    14  H    0.130873
    15  H    0.132188
    16  C   -0.149161
    17  H    0.127252
    18  H    0.131906
    19  C    0.134734
    20  C   -0.111968
    21  C   -0.105381
    22  C   -0.188422
    23  C   -0.105394
    24  C   -0.111974
    25  N   -0.693653
    26  S    1.154643
    27  O   -0.567629
    28  H    0.122756
    29  H    0.122027
    30  H    0.179263
    31  H    0.179281
    32  H    0.169130
    33  H    0.169129
    34  O   -0.567626
    35  C   -0.191213
    36  C   -0.110024
    37  C   -0.110004
    38  C   -0.128115
    39  H    0.168294
    40  C   -0.128115
    41  H    0.168258
    42  C   -0.117849
    43  H    0.144798
    44  H    0.144795
    45  H    0.143888
 Sum of Mulliken charges =  -0.00000

 Dipole moment (field-independent basis, Debye):
    X=              0.3587    Y=              4.8134    Z=              0.0016  Tot=              4.8267
 Quadrupole moment (field-independent basis, Debye-Ang):
   XX=           -161.3369   YY=           -165.8169   ZZ=           -161.3569
   XY=            -25.7406   XZ=             -0.0122   YZ=             -0.0053

 Normal termination of Gaussian 16 at Wed Aug  7 17:14:59 2024.
