 Gaussian 16, Revision C.01,
 Gaussian 16:  ES64L-G16RevC.01  3-Jul-2019

 ----------------------------------------------------------------------
 #p opt=Restart wb97xd/6-31G** iop(3/107=0103900000,3/108=0103900000) T
 DA=(triplets, nstates=4, root=2)
 ----------------------------------------------------------------------

 SCF Done:  E(RwB97XD) =  -3503.77713669     A.U. after   10 cycles
 SCF Done:  E(RwB97XD) =  -3503.77720689     A.U. after    9 cycles
 SCF Done:  E(RwB97XD) =  -3503.77722026     A.U. after    6 cycles
 SCF Done:  E(RwB97XD) =  -3503.77671869     A.U. after   10 cycles
 SCF Done:  E(RwB97XD) =  -3503.77667940     A.U. after   10 cycles
 SCF Done:  E(RwB97XD) =  -3503.77708874     A.U. after   10 cycles
 SCF Done:  E(RwB97XD) =  -3503.77717584     A.U. after    7 cycles
 SCF Done:  E(RwB97XD) =  -3503.77723276     A.U. after    7 cycles
 SCF Done:  E(RwB97XD) =  -3503.77729801     A.U. after    7 cycles
 SCF Done:  E(RwB97XD) =  -3503.77723634     A.U. after    7 cycles
 SCF Done:  E(RwB97XD) =  -3503.77722824     A.U. after    6 cycles
 SCF Done:  E(RwB97XD) =  -3503.77722027     A.U. after    6 cycles
 SCF Done:  E(RwB97XD) =  -3503.77721786     A.U. after    6 cycles
 SCF Done:  E(RwB97XD) =  -3503.77721695     A.U. after    5 cycles

 Excitation energies and oscillator strengths:

 Excited State   1:      Triplet-A      3.2443 eV  382.16 nm  f=0.0000  <S**2>=2.000
     271 -> 283       -0.12102
     272 -> 283       -0.11016
     280 -> 283        0.12839
     281 -> 283       -0.18555
     282 -> 283        0.57087
     282 -> 285        0.12871

 Excited State   2:      Triplet-A      2.8520 eV  434.73 nm  f=0.0000  <S**2>=2.000
     278 -> 284        0.14346
     281 -> 284        0.53562
     281 -> 285        0.18352
     282 -> 284        0.28599
 This state for optimization and/or second-order correction.
 Total Energy, E(CIS/TDA) =  -3503.67240950
 Copying the excited state density for this state as the 1-particle RhoCI density.

 Excited State   3:      Triplet-A      3.3927 eV  365.44 nm  f=0.0000  <S**2>=2.000
     278 -> 284        0.59680
     278 -> 285        0.21748
     279 -> 284       -0.13283
     282 -> 284       -0.13909

 Excited State   4:      Triplet-A      3.4899 eV  355.27 nm  f=0.0000  <S**2>=2.000
     277 -> 286        0.13384
     277 -> 288       -0.12086
     279 -> 286        0.17404
     280 -> 283        0.53447
     281 -> 283        0.18320
     282 -> 285       -0.12399

 Optimization completed.
    -- Stationary point found.

                         Standard orientation:
 ---------------------------------------------------------------------
 Center     Atomic      Atomic             Coordinates (Angstroms)
 Number     Number       Type             X           Y           Z
 ---------------------------------------------------------------------
      1          6           0       -2.339931    0.262005    1.598467
      2          6           0       -1.114098    2.072601    0.985795
      3          6           0       -2.797433   -1.018653    1.881833
      4          6           0       -3.051786    1.401028    2.026172
      5          6           0       -0.166681    2.945772    0.461271
      6          6           0       -2.269379    2.558242    1.634894
      7          6           0       -4.013576   -1.142501    2.548507
      8          1           0       -2.241646   -1.901269    1.590700
      9          6           0       -4.261819    1.246343    2.700065
     10          6           0       -0.388309    4.314918    0.608755
     11          1           0        0.721853    2.588513   -0.046939
     12          6           0       -2.462130    3.931569    1.765817
     13          6           0       -4.772456   -0.030560    2.960361
     14          1           0       -4.372080   -2.144667    2.745369
     15          1           0       -4.804590    2.130521    3.018930
     16          6           0       -1.522997    4.837188    1.256731
     17          1           0        0.357667    4.986745    0.202564
     18          1           0       -3.356776    4.291182    2.264157
     19          6           0       -0.286825   -0.144542    0.218971
     20          6           0       -0.733063   -1.015428   -0.803625
     21          6           0        0.203703   -1.802488   -1.479735
     22          6           0        1.559857   -1.725291   -1.185452
     23          6           0        2.012389   -0.840135   -0.197058
     24          6           0        1.082183   -0.068092    0.491958
     25          1           0       -0.125627   -2.454411   -2.280521
     26          6           0        4.125112   -1.357176    1.041792
     27          6           0        4.121661    0.466549   -0.321690
     28          6           0        3.814692   -2.474806    1.778364
     29          6           0        5.412317   -0.674838    1.171407
     30          6           0        3.777252    1.445066   -1.207819
     31          6           0        5.392356    0.433657    0.330580
     32          6           0        4.795613   -2.960332    2.663537
     33          1           0        2.866709   -2.984324    1.662396
     34          6           0        6.387285   -1.214879    2.078563
     35          6           0        4.771890    2.469678   -1.494552
     36          1           0        2.818002    1.459503   -1.709881
     37          6           0        6.355110    1.464182    0.023195
     38          6           0        6.087800   -2.335940    2.816568
     39          1           0        4.565695   -3.847463    3.240840
     40          1           0        7.343121   -0.715884    2.167940
     41          6           0        6.029187    2.481753   -0.900247
     42          1           0        4.494249    3.235890   -2.206189
     43          1           0        7.317492    1.447592    0.520570
     44          6           0       -6.126842   -0.174926    3.677849
     45          6           0       -1.762375    6.349610    1.418125
     46          7           0       -1.165571    0.670858    0.952518
     47          7           0        3.388005   -0.662495    0.097236
     48          6           0        7.073158    3.572283   -1.201703
     49          6           0        7.079980   -2.961992    3.807075
     50         16           0        2.653809   -2.835292   -2.111826
     51          6           0        3.889902   -1.758179   -2.825515
     52          6           0        3.522947   -0.910077   -3.871295
     53          6           0        5.187905   -1.786829   -2.321492
     54          6           0        4.484429   -0.061256   -4.413360
     55          1           0        2.510335   -0.925109   -4.258014
     56          6           0        6.140052   -0.932923   -2.874771
     57          1           0        5.432649   -2.455405   -1.504791
     58          6           0        5.787750   -0.071426   -3.913167
     59          1           0        4.217391    0.604720   -5.226292
     60          1           0        7.150493   -0.932152   -2.483781
     61          1           0        6.530661    0.595336   -4.335854
     62          8           0        3.308002   -3.732693   -1.158923
     63          8           0        1.834599   -3.377042   -3.200162
     64          1           0        1.429576    0.591626    1.278246
     65          6           0        7.393306    4.343534    0.099179
     66          1           0        7.799274    3.685044    0.871877
     67          1           0        8.132616    5.128610   -0.092599
     68          1           0        6.491405    4.813702    0.502096
     69          6           0        6.579833    4.585052   -2.250512
     70          1           0        6.349606    4.100185   -3.204433
     71          1           0        5.687191    5.118976   -1.910498
     72          1           0        7.357937    5.331085   -2.437766
     73          6           0        8.364354    2.916317   -1.741074
     74          1           0        8.162730    2.366563   -2.665065
     75          1           0        9.119853    3.679286   -1.956703
     76          1           0        8.797284    2.215017   -1.022762
     77          6           0        6.457883   -2.960994    5.223076
     78          1           0        5.531054   -3.538966    5.264873
     79          1           0        7.156170   -3.400850    5.942879
     80          1           0        6.231335   -1.940675    5.546204
     81          6           0        8.411074   -2.192175    3.868483
     82          1           0        8.917162   -2.180911    2.898275
     83          1           0        8.265946   -1.157996    4.195523
     84          1           0        9.082542   -2.674162    4.585238
     85          6           0        7.383670   -4.415739    3.375086
     86          1           0        6.484330   -5.036682    3.360695
     87          1           0        7.821372   -4.438905    2.372852
     88          1           0        8.094291   -4.875571    4.069929
     89          6           0       -3.077431    6.739736    0.705543
     90          1           0       -3.937728    6.207041    1.120184
     91          1           0       -3.267817    7.812941    0.813148
     92          1           0       -3.023400    6.508359   -0.362338
     93          6           0       -1.868514    6.695604    2.920858
     94          1           0       -2.033365    7.769969    3.055433
     95          1           0       -2.698475    6.170389    3.401471
     96          1           0       -0.950185    6.421677    3.448470
     97          6           0       -0.623962    7.191728    0.813743
     98          1           0        0.336314    6.982751    1.295347
     99          1           0       -0.516407    7.019068   -0.261698
    100          1           0       -0.838260    8.255287    0.955216
    101          6           0       -7.226040    0.501863    2.827675
    102          1           0       -8.202599    0.402611    3.313856
    103          1           0       -7.031113    1.568618    2.687926
    104          1           0       -7.286778    0.041866    1.837249
    105          6           0       -6.053977    0.504761    5.063882
    106          1           0       -5.827579    1.571556    4.982745
    107          1           0       -7.010727    0.407994    5.588241
    108          1           0       -5.277250    0.044802    5.681975
    109          6           0       -6.525329   -1.647183    3.887176
    110          1           0       -6.625500   -2.179115    2.936555
    111          1           0       -5.799210   -2.181262    4.507903
    112          1           0       -7.492528   -1.697325    4.396436
    113          7           0       -2.088690   -1.112419   -1.167209
    114          6           0       -2.932999   -0.047757   -1.504762
    115          6           0       -2.865498   -2.276173   -1.079648
    116          6           0       -2.625650    1.281638   -1.766679
    117          6           0       -4.255738   -0.524407   -1.612778
    118          6           0       -2.493427   -3.575646   -0.751844
    119          6           0       -4.213029   -1.948798   -1.341899
    120          6           0       -3.673605    2.142136   -2.083785
    121          1           0       -1.609242    1.652805   -1.719535
    122          6           0       -5.282838    0.358610   -1.940870
    123          6           0       -3.492766   -4.547140   -0.703451
    124          1           0       -1.463715   -3.838560   -0.537490
    125          6           0       -5.188207   -2.942166   -1.285477
    126          6           0       -5.011559    1.712755   -2.168822
    127          1           0       -3.426094    3.180104   -2.265800
    128          1           0       -6.298012   -0.018224   -2.015377
    129          6           0       -4.845670   -4.262058   -0.967245
    130          1           0       -3.194170   -5.557494   -0.453053
    131          1           0       -6.221181   -2.676727   -1.487118
    132          6           0       -6.168220    2.673616   -2.499151
    133          6           0       -5.944167   -5.339831   -0.915504
    134          6           0       -5.683964    4.116653   -2.730256
    135          6           0       -6.887341    2.197494   -3.781514
    136          6           0       -7.168608    2.687627   -1.320979
    137          6           0       -5.385928   -6.730182   -0.561098
    138          6           0       -6.989991   -4.956038    0.156011
    139          6           0       -6.632936   -5.437500   -2.295842
    140          1           0       -5.192827    4.526592   -1.842795
    141          1           0       -4.987976    4.182273   -3.572376
    142          1           0       -6.539354    4.759191   -2.960046
    143          1           0       -6.196019    2.174640   -4.629137
    144          1           0       -7.305100    1.193684   -3.664918
    145          1           0       -7.712694    2.873015   -4.030935
    146          1           0       -6.676300    3.011981   -0.399702
    147          1           0       -7.996902    3.373720   -1.528772
    148          1           0       -7.594765    1.697189   -1.139752
    149          1           0       -4.656236   -7.076005   -1.299662
    150          1           0       -4.910835   -6.739250    0.424850
    151          1           0       -6.201677   -7.459029   -0.538685
    152          1           0       -7.459872   -3.992725   -0.061212
    153          1           0       -7.783597   -5.709360    0.204179
    154          1           0       -6.525390   -4.886844    1.144032
    155          1           0       -7.102192   -4.492710   -2.583854
    156          1           0       -5.909642   -5.701360   -3.072946
    157          1           0       -7.414188   -6.204974   -2.280176
 ---------------------------------------------------------------------

 The electronic state is 1-A.
 Alpha  occ. eigenvalues --  -89.22045 -19.22202 -19.22176 -14.46602 -14.46344
 Alpha  occ. eigenvalues --  -14.46329 -10.33578 -10.33544 -10.33343 -10.31150
 Alpha  occ. eigenvalues --  -10.29839 -10.29701 -10.29664 -10.29649 -10.29534
 Alpha  occ. eigenvalues --  -10.29430 -10.29369 -10.29253 -10.29236 -10.28292
 Alpha  occ. eigenvalues --  -10.27817 -10.27724 -10.27629 -10.27592 -10.27441
 Alpha  occ. eigenvalues --  -10.27357 -10.27135 -10.27016 -10.27009 -10.26960
 Alpha  occ. eigenvalues --  -10.26493 -10.26399 -10.26349 -10.26281 -10.26210
 Alpha  occ. eigenvalues --  -10.26161 -10.26141 -10.26097 -10.26045 -10.25872
 Alpha  occ. eigenvalues --  -10.25864 -10.25857 -10.25850 -10.25831 -10.25816
 Alpha  occ. eigenvalues --  -10.25788 -10.25758 -10.25726 -10.25713 -10.25659
 Alpha  occ. eigenvalues --  -10.25616 -10.25587 -10.25559 -10.25545 -10.25515
 Alpha  occ. eigenvalues --  -10.25479 -10.25445 -10.25358 -10.25201 -10.25173
 Alpha  occ. eigenvalues --  -10.24610 -10.24587 -10.24370 -10.24364 -10.24292
 Alpha  occ. eigenvalues --  -10.24194 -10.24046 -10.24033 -10.24011 -10.23958
 Alpha  occ. eigenvalues --  -10.23910 -10.23898 -10.23889 -10.23872 -10.23844
 Alpha  occ. eigenvalues --  -10.23843 -10.23815 -10.23740  -8.20409  -6.15374
 Alpha  occ. eigenvalues --   -6.15329  -6.15265  -1.15805  -1.06358  -1.05488
 Alpha  occ. eigenvalues --   -1.05198  -1.04403  -0.95248  -0.92811  -0.91716
 Alpha  occ. eigenvalues --   -0.91130  -0.90775  -0.90612  -0.90379  -0.89960
 Alpha  occ. eigenvalues --   -0.87940  -0.87282  -0.86547  -0.86373  -0.86200
 Alpha  occ. eigenvalues --   -0.86091  -0.84428  -0.83521  -0.83089  -0.82499
 Alpha  occ. eigenvalues --   -0.82023  -0.81516  -0.81326  -0.79459  -0.79444
 Alpha  occ. eigenvalues --   -0.79252  -0.78368  -0.77501  -0.76948  -0.76736
 Alpha  occ. eigenvalues --   -0.76305  -0.75766  -0.73891  -0.73711  -0.73694
 Alpha  occ. eigenvalues --   -0.73600  -0.73487  -0.73443  -0.73212  -0.73146
 Alpha  occ. eigenvalues --   -0.73128  -0.73099  -0.73093  -0.73061  -0.73037
 Alpha  occ. eigenvalues --   -0.71270  -0.70165  -0.68687  -0.68381  -0.67472
 Alpha  occ. eigenvalues --   -0.67160  -0.66433  -0.66293  -0.66149  -0.65480
 Alpha  occ. eigenvalues --   -0.65368  -0.64258  -0.62684  -0.62423  -0.62406
 Alpha  occ. eigenvalues --   -0.62343  -0.60930  -0.60240  -0.60132  -0.59653
 Alpha  occ. eigenvalues --   -0.59210  -0.58931  -0.58642  -0.58473  -0.57892
 Alpha  occ. eigenvalues --   -0.56772  -0.56229  -0.56031  -0.55918  -0.55436
 Alpha  occ. eigenvalues --   -0.53496  -0.52947  -0.52641  -0.52574  -0.52060
 Alpha  occ. eigenvalues --   -0.51827  -0.51562  -0.51189  -0.51129  -0.50990
 Alpha  occ. eigenvalues --   -0.50843  -0.50790  -0.50139  -0.49992  -0.49835
 Alpha  occ. eigenvalues --   -0.49512  -0.49404  -0.49123  -0.49014  -0.49010
 Alpha  occ. eigenvalues --   -0.48667  -0.48664  -0.48472  -0.48335  -0.48234
 Alpha  occ. eigenvalues --   -0.48091  -0.48041  -0.48002  -0.47959  -0.47875
 Alpha  occ. eigenvalues --   -0.47640  -0.47310  -0.46905  -0.46840  -0.46740
 Alpha  occ. eigenvalues --   -0.46716  -0.46482  -0.46173  -0.46104  -0.45942
 Alpha  occ. eigenvalues --   -0.45800  -0.45715  -0.45653  -0.45337  -0.44796
 Alpha  occ. eigenvalues --   -0.44407  -0.44303  -0.43956  -0.43785  -0.43621
 Alpha  occ. eigenvalues --   -0.43477  -0.43379  -0.43355  -0.43218  -0.43015
 Alpha  occ. eigenvalues --   -0.42804  -0.42629  -0.42415  -0.42203  -0.42059
 Alpha  occ. eigenvalues --   -0.41941  -0.41746  -0.41706  -0.41662  -0.41623
 Alpha  occ. eigenvalues --   -0.41144  -0.40903  -0.40601  -0.40539  -0.40510
 Alpha  occ. eigenvalues --   -0.40469  -0.40395  -0.40158  -0.39897  -0.39733
 Alpha  occ. eigenvalues --   -0.39533  -0.39445  -0.39345  -0.39102  -0.38992
 Alpha  occ. eigenvalues --   -0.38857  -0.38187  -0.38051  -0.37906  -0.37445
 Alpha  occ. eigenvalues --   -0.37079  -0.36956  -0.36831  -0.36805  -0.36706
 Alpha  occ. eigenvalues --   -0.36652  -0.36529  -0.36354  -0.36319  -0.36190
 Alpha  occ. eigenvalues --   -0.36134  -0.35994  -0.35720  -0.35662  -0.35622
 Alpha  occ. eigenvalues --   -0.35478  -0.35418  -0.35336  -0.35269  -0.34702
 Alpha  occ. eigenvalues --   -0.33695  -0.32763  -0.32530  -0.32189  -0.31799
 Alpha  occ. eigenvalues --   -0.31635  -0.30739  -0.30572  -0.28908  -0.28724
 Alpha  occ. eigenvalues --   -0.28483  -0.25762  -0.24992  -0.24903  -0.24133
 Alpha  occ. eigenvalues --   -0.23690  -0.23465
 Alpha virt. eigenvalues --   -0.01047   0.00443   0.00496   0.01787   0.01876
 Alpha virt. eigenvalues --    0.02041   0.03461   0.04801   0.05763   0.05885
 Alpha virt. eigenvalues --    0.07445   0.07665   0.07910   0.09032   0.09285

 Mulliken charges:
               1
     1  C    0.312410
     2  C    0.300282
     3  C   -0.141807
     4  C    0.023294
     5  C   -0.171946
     6  C    0.030160
     7  C   -0.181245
     8  H    0.135151
     9  C   -0.196331
    10  C   -0.184752
    11  H    0.139813
    12  C   -0.199050
    13  C    0.122271
    14  H    0.128454
    15  H    0.121580
    16  C    0.120944
    17  H    0.123475
    18  H    0.124775
    19  C    0.249520
    20  C    0.260036
    21  C   -0.175430
    22  C   -0.233133
    23  C    0.206888
    24  C   -0.135477
    25  H    0.215046
    26  C    0.313797
    27  C    0.314603
    28  C   -0.139807
    29  C   -0.031096
    30  C   -0.180912
    31  C    0.020957
    32  C   -0.179403
    33  H    0.154959
    34  C   -0.191308
    35  C   -0.191106
    36  H    0.136849
    37  C   -0.195256
    38  C    0.127322
    39  H    0.125508
    40  H    0.123070
    41  C    0.134924
    42  H    0.119659
    43  H    0.125304
    44  C   -0.067858
    45  C   -0.067762
    46  N   -0.770536
    47  N   -0.756522
    48  C   -0.068141
    49  C   -0.074930
    50  S    1.223837
    51  C   -0.213182
    52  C   -0.116980
    53  C   -0.111791
    54  C   -0.137067
    55  H    0.173909
    56  C   -0.125846
    57  H    0.193402
    58  C   -0.117227
    59  H    0.148825
    60  H    0.155593
    61  H    0.148666
    62  O   -0.550123
    63  O   -0.566703
    64  H    0.193400
    65  C   -0.363132
    66  H    0.125432
    67  H    0.123256
    68  H    0.136036
    69  C   -0.385446
    70  H    0.126966
    71  H    0.131079
    72  H    0.127651
    73  C   -0.365396
    74  H    0.128881
    75  H    0.125058
    76  H    0.124180
    77  C   -0.364018
    78  H    0.124738
    79  H    0.122338
    80  H    0.134607
    81  C   -0.382936
    82  H    0.128441
    83  H    0.129627
    84  H    0.126698
    85  C   -0.363548
    86  H    0.127085
    87  H    0.135055
    88  H    0.121762
    89  C   -0.366120
    90  H    0.124434
    91  H    0.123953
    92  H    0.134808
    93  C   -0.364303
    94  H    0.123240
    95  H    0.124168
    96  H    0.136687
    97  C   -0.386177
    98  H    0.132068
    99  H    0.128713
   100  H    0.127018
   101  C   -0.365782
   102  H    0.121099
   103  H    0.124067
   104  H    0.138447
   105  C   -0.363817
   106  H    0.122136
   107  H    0.122348
   108  H    0.135612
   109  C   -0.391953
   110  H    0.138343
   111  H    0.130409
   112  H    0.124850
   113  N   -0.766453
   114  C    0.311458
   115  C    0.302399
   116  C   -0.143090
   117  C    0.023537
   118  C   -0.173353
   119  C    0.028581
   120  C   -0.181458
   121  H    0.129778
   122  C   -0.196803
   123  C   -0.183073
   124  H    0.146345
   125  C   -0.198643
   126  C    0.121991
   127  H    0.125547
   128  H    0.121715
   129  C    0.119940
   130  H    0.126520
   131  H    0.123636
   132  C   -0.067689
   133  C   -0.067494
   134  C   -0.390864
   135  C   -0.363694
   136  C   -0.365517
   137  C   -0.386960
   138  C   -0.366179
   139  C   -0.364272
   140  H    0.136801
   141  H    0.129535
   142  H    0.124633
   143  H    0.135226
   144  H    0.122914
   145  H    0.121913
   146  H    0.137502
   147  H    0.120751
   148  H    0.124743
   149  H    0.133992
   150  H    0.129601
   151  H    0.126462
   152  H    0.123214
   153  H    0.123648
   154  H    0.134745
   155  H    0.123153
   156  H    0.137864
   157  H    0.122783
 Sum of Mulliken charges =  -0.00000

 Dipole moment (field-independent basis, Debye):
    X=              0.0961    Y=              4.6514    Z=              0.5757  Tot=              4.6879
 Quadrupole moment (field-independent basis, Debye-Ang):
   XX=           -423.5488   YY=           -460.9603   ZZ=           -466.5449
   XY=             16.9071   XZ=             -6.0479   YZ=            -21.2912

 Normal termination of Gaussian 16 at Mon Sep 16 18:28:13 2024.
