 Gaussian 16, Revision C.01,
 Gaussian 16:  ES64L-G16RevC.01  3-Jul-2019

 ----------------------------------------------------------------------
 #p opt wB97XD/6-31G** iop(3/107=0158200000) IOP(3/108=0158200000) TDA=
 (triplets, nstates=4, root=2)
 ----------------------------------------------------------------------

 ------------------------------------------------------------
 Tuning input file generated by xtune with parameters: w01582
 ------------------------------------------------------------
 Symbolic Z-matrix:
 Charge =  0 Multiplicity = 1

 SCF Done:  E(RwB97XD) =  -1527.82787015     A.U. after   16 cycles
 SCF Done:  E(RwB97XD) =  -1527.82126826     A.U. after   14 cycles
 SCF Done:  E(RwB97XD) =  -1527.81339610     A.U. after   13 cycles
 SCF Done:  E(RwB97XD) =  -1527.81259725     A.U. after   14 cycles
 SCF Done:  E(RwB97XD) =  -1527.81416061     A.U. after   13 cycles
 SCF Done:  E(RwB97XD) =  -1527.81440045     A.U. after   12 cycles
 SCF Done:  E(RwB97XD) =  -1527.81420196     A.U. after   11 cycles
 SCF Done:  E(RwB97XD) =  -1527.81394057     A.U. after   11 cycles
 SCF Done:  E(RwB97XD) =  -1527.81354674     A.U. after   11 cycles
 SCF Done:  E(RwB97XD) =  -1527.81346785     A.U. after    8 cycles
 SCF Done:  E(RwB97XD) =  -1527.81346275     A.U. after    7 cycles
 SCF Done:  E(RwB97XD) =  -1527.81347856     A.U. after    7 cycles
 SCF Done:  E(RwB97XD) =  -1527.81348928     A.U. after    7 cycles
 SCF Done:  E(RwB97XD) =  -1527.81349441     A.U. after    7 cycles

 Excitation energies and oscillator strengths:

 Excited State   1:      Triplet-A      3.6281 eV  341.74 nm  f=0.0000  <S**2>=2.000
      92 ->108        -0.15041
      97 ->102        -0.13335
      97 ->107        -0.10502
      99 ->101        -0.14074
      99 ->102        -0.59437
     100 ->106         0.20809

 Excited State   2:      Triplet-A      2.9401 eV  421.70 nm  f=0.0000  <S**2>=2.000
      95 ->101        -0.16806
      98 ->101        -0.28358
     100 ->101         0.57142
     100 ->104        -0.16449
 This state for optimization and/or second-order correction.
 Total Energy, E(CIS/TDA) =  -1527.70544697
 Copying the excited state density for this state as the 1-particle RhoCI density.

 Excited State   3:      Triplet-A      3.7273 eV  332.64 nm  f=0.0000  <S**2>=2.000
      97 ->106        -0.14166
      97 ->108        -0.12465
      98 ->102         0.15603
     100 ->102         0.65099

 Excited State   4:      Triplet-A      4.0888 eV  303.23 nm  f=0.0000  <S**2>=2.000
      93 ->104         0.11572
      95 ->101        -0.15275
      95 ->104        -0.26594
      96 ->103        -0.19581
      96 ->105        -0.22623
      98 ->101         0.38211
      98 ->104         0.23755
     100 ->101         0.11696
     100 ->104        -0.17557
     100 ->107        -0.10404

 Optimization completed.
    -- Stationary point found.

                         Standard orientation:
 ---------------------------------------------------------------------
 Center     Atomic      Atomic             Coordinates (Angstroms)
 Number     Number       Type             X           Y           Z
 ---------------------------------------------------------------------
      1          6           0        3.212259   -0.973675    0.191425
      2          6           0        2.678969    1.184814   -0.262587
      3          6           0        3.197674   -2.361960    0.328032
      4          6           0        4.402610   -0.225552    0.310528
      5          6           0        2.001295    2.378514   -0.510318
      6          6           0        4.063219    1.155262    0.007727
      7          6           0        4.398069   -2.985129    0.656879
      8          1           0        2.295299   -2.938388    0.163654
      9          6           0        5.593178   -0.869915    0.628120
     10          6           0        2.756501    3.547112   -0.545711
     11          1           0        0.927540    2.400567   -0.652654
     12          6           0        4.796799    2.336304   -0.021728
     13          6           0        5.580250   -2.251614    0.814220
     14          1           0        4.417502   -4.062912    0.777570
     15          1           0        6.517934   -0.309420    0.718326
     16          6           0        4.137148    3.529504   -0.312804
     17          1           0        2.259979    4.490884   -0.744273
     18          1           0        5.861361    2.331079    0.188422
     19          6           0        0.836654   -0.476326   -0.342124
     20          6           0        0.179482   -1.386846    0.588338
     21          6           0       -1.128625   -1.701353    0.429689
     22          6           0       -1.873145   -1.145344   -0.681235
     23          6           0       -1.209987   -0.299553   -1.654877
     24          6           0        0.090162    0.038853   -1.479744
     25          7           0        2.156918   -0.114089   -0.152499
     26         16           0       -3.619533   -1.287690   -0.708719
     27          8           0       -3.984928   -2.484523    0.052878
     28          1           0        6.500404   -2.768266    1.064757
     29          1           0        4.696116    4.458549   -0.342287
     30          1           0       -1.640235   -2.357811    1.123506
     31          1           0       -1.761332    0.013418   -2.533744
     32          1           0        0.617794    0.616248   -2.231592
     33          1           0        0.734957   -1.752281    1.444968
     34          8           0       -4.063001   -1.092049   -2.091152
     35          6           0       -4.173387    0.130433    0.230805
     36          6           0       -4.317486    0.019182    1.614337
     37          6           0       -4.385035    1.343704   -0.425450
     38          6           0       -4.679443    1.143872    2.348779
     39          1           0       -4.167618   -0.942283    2.092798
     40          6           0       -4.746450    2.461275    0.320294
     41          1           0       -4.288100    1.393046   -1.504322
     42          6           0       -4.889591    2.363155    1.704373
     43          1           0       -4.804104    1.068072    3.423937
     44          1           0       -4.923926    3.407996   -0.179304
     45          1           0       -5.172757    3.237434    2.281602
 ---------------------------------------------------------------------

 The electronic state is 1-A.
 Alpha  occ. eigenvalues --  -89.24052 -19.24044 -19.24003 -14.50049 -10.36726
 Alpha  occ. eigenvalues --  -10.33254 -10.33233 -10.32891 -10.32132 -10.31948
 Alpha  occ. eigenvalues --  -10.31924 -10.31299 -10.31282 -10.30794 -10.30784
 Alpha  occ. eigenvalues --  -10.30567 -10.30354 -10.30337 -10.29545 -10.29504
 Alpha  occ. eigenvalues --  -10.29427 -10.29378 -10.29377 -10.29345 -10.29259
 Alpha  occ. eigenvalues --  -10.29197 -10.28686 -10.28638  -8.22537  -6.17508
 Alpha  occ. eigenvalues --   -6.17457  -6.17385  -1.18027  -1.09179  -1.07543
 Alpha  occ. eigenvalues --   -0.96518  -0.95799  -0.93782  -0.93664  -0.88205
 Alpha  occ. eigenvalues --   -0.86338  -0.86257  -0.84540  -0.84477  -0.83932
 Alpha  occ. eigenvalues --   -0.81403  -0.80669  -0.76434  -0.72883  -0.71013
 Alpha  occ. eigenvalues --   -0.70822  -0.69988  -0.68479  -0.67462  -0.65965
 Alpha  occ. eigenvalues --   -0.65905  -0.62635  -0.62088  -0.59941  -0.59272
 Alpha  occ. eigenvalues --   -0.57897  -0.56134  -0.55153  -0.54356  -0.54297
 Alpha  occ. eigenvalues --   -0.53512  -0.53178  -0.52739  -0.52303  -0.52105
 Alpha  occ. eigenvalues --   -0.51356  -0.50883  -0.50690  -0.50002  -0.49919
 Alpha  occ. eigenvalues --   -0.49680  -0.48738  -0.46287  -0.45505  -0.44691
 Alpha  occ. eigenvalues --   -0.44125  -0.44033  -0.43483  -0.43199  -0.42833
 Alpha  occ. eigenvalues --   -0.41747  -0.41039  -0.40584  -0.39264  -0.38129
 Alpha  occ. eigenvalues --   -0.36542  -0.35717  -0.35523  -0.35039  -0.34592
 Alpha  occ. eigenvalues --   -0.33341  -0.32620  -0.32094  -0.28446  -0.26518
 Alpha virt. eigenvalues --   -0.01137   0.02125   0.03300   0.03530   0.04841
 Alpha virt. eigenvalues --    0.05608   0.08410   0.09691   0.13373   0.15228
 Alpha virt. eigenvalues --    0.16209   0.16465   0.16904   0.17123   0.18765

 Mulliken charges:
               1
     1  C    0.299118
     2  C    0.296788
     3  C   -0.143560
     4  C    0.020868
     5  C   -0.141010
     6  C    0.022010
     7  C   -0.140131
     8  H    0.141461
     9  C   -0.159717
    10  C   -0.140234
    11  H    0.138563
    12  C   -0.159848
    13  C   -0.144670
    14  H    0.133078
    15  H    0.133620
    16  C   -0.144626
    17  H    0.131041
    18  H    0.133830
    19  C    0.247795
    20  C   -0.135882
    21  C   -0.112369
    22  C   -0.217033
    23  C   -0.115563
    24  C   -0.137867
    25  N   -0.742966
    26  S    1.160420
    27  O   -0.570424
    28  H    0.128909
    29  H    0.128469
    30  H    0.177682
    31  H    0.178336
    32  H    0.162880
    33  H    0.160411
    34  O   -0.571113
    35  C   -0.191757
    36  C   -0.107582
    37  C   -0.108054
    38  C   -0.128509
    39  H    0.168456
    40  C   -0.129236
    41  H    0.168304
    42  C   -0.118095
    43  H    0.143555
    44  H    0.142790
    45  H    0.141864
 Sum of Mulliken charges =  -0.00000

 Dipole moment (field-independent basis, Debye):
    X=              3.2793    Y=              4.0315    Z=              2.5627  Tot=              5.7944
 Quadrupole moment (field-independent basis, Debye-Ang):
   XX=           -169.5005   YY=           -157.0252   ZZ=           -164.5661
   XY=            -21.6117   XZ=            -10.8303   YZ=             -7.4202

 Normal termination of Gaussian 16 at Wed Aug 14 17:16:40 2024.
