 Gaussian 16, Revision C.01,
 Gaussian 16:  ES64L-G16RevC.01  3-Jul-2019

 ----------------------------------------------------------------------
 #p opt wB97XD/6-31G** iop(3/107=0136000000,3/108=0136000000) TDA=(trip
 lets, nstates=4, root=2)
 ----------------------------------------------------------------------

 ------------------------------------------------------------
 Tuning input file generated by xtune with parameters: w01360
 ------------------------------------------------------------
 Symbolic Z-matrix:
 Charge =  0 Multiplicity = 1

 SCF Done:  E(RwB97XD) =  -2044.02676988     A.U. after   16 cycles
 SCF Done:  E(RwB97XD) =  -2044.02230754     A.U. after   12 cycles
 SCF Done:  E(RwB97XD) =  -2043.99721911     A.U. after   14 cycles
 SCF Done:  E(RwB97XD) =  -2044.00873512     A.U. after   13 cycles
 SCF Done:  E(RwB97XD) =  -2044.01169840     A.U. after   13 cycles
 SCF Done:  E(RwB97XD) =  -2044.01296856     A.U. after   12 cycles
 SCF Done:  E(RwB97XD) =  -2044.01292828     A.U. after   13 cycles
 SCF Done:  E(RwB97XD) =  -2044.01355919     A.U. after   11 cycles
 SCF Done:  E(RwB97XD) =  -2044.01357866     A.U. after   11 cycles
 SCF Done:  E(RwB97XD) =  -2044.01349975     A.U. after   11 cycles
 SCF Done:  E(RwB97XD) =  -2044.01337558     A.U. after   11 cycles
 SCF Done:  E(RwB97XD) =  -2044.01334185     A.U. after   11 cycles
 SCF Done:  E(RwB97XD) =  -2044.01334978     A.U. after    8 cycles

 Excitation energies and oscillator strengths:

 Excited State   1:      Triplet-A      3.4716 eV  357.14 nm  f=0.0000  <S**2>=2.000
     137 ->144         0.10785
     140 ->145         0.14226
     141 ->144         0.22727
     141 ->145         0.45806
     142 ->144         0.22346
     142 ->145         0.23628
     143 ->144        -0.15517
     143 ->145        -0.11789

 Excited State   2:      Triplet-A      2.8764 eV  431.04 nm  f=0.0000  <S**2>=2.000
     140 ->145        -0.16332
     142 ->145         0.25435
     143 ->144         0.14646
     143 ->145         0.57111
 This state for optimization and/or second-order correction.
 Total Energy, E(CIS/TDA) =  -2043.90764518
 Copying the excited state density for this state as the 1-particle RhoCI density.

 Excited State   3:      Triplet-A      3.5605 eV  348.22 nm  f=0.0000  <S**2>=2.000
     137 ->144         0.16608
     140 ->147         0.27997
     140 ->148         0.13146
     141 ->144         0.11621
     141 ->145        -0.26873
     141 ->147        -0.11580
     142 ->144         0.23937
     142 ->148         0.11776
     143 ->144        -0.22174
     143 ->147         0.20690

 Excited State   4:      Triplet-A      3.5671 eV  347.57 nm  f=0.0000  <S**2>=2.000
     137 ->144         0.12860
     140 ->147        -0.40595
     140 ->148        -0.11187
     141 ->145        -0.16060
     141 ->147         0.14200
     141 ->148         0.10981
     142 ->144         0.21047
     142 ->147        -0.11058
     143 ->144        -0.11509
     143 ->147        -0.18351
     143 ->148        -0.13302

 Optimization completed.
    -- Stationary point found.

                         Standard orientation:
 ---------------------------------------------------------------------
 Center     Atomic      Atomic             Coordinates (Angstroms)
 Number     Number       Type             X           Y           Z
 ---------------------------------------------------------------------
      1          6           0       -0.228904   -1.321597    0.398138
      2          6           0        0.311698   -0.369375   -0.499898
      3          6           0        1.624724   -0.520082   -0.942250
      4          6           0        2.391878   -1.590439   -0.497901
      5          6           0        1.863578   -2.554306    0.355467
      6          6           0        0.551611   -2.414232    0.791026
      7         16           0        4.107229   -1.693284   -1.010449
      8          8           0        4.195706   -1.192399   -2.381892
      9          1           0        2.027120    0.190634   -1.655385
     10          1           0        2.475723   -3.390163    0.673124
     11          1           0        0.120148   -3.134990    1.476586
     12          7           0       -0.423377    0.751040   -0.937210
     13          6           0       -1.705081    0.737560   -1.495935
     14          6           0       -0.093258    2.073995   -0.625094
     15          6           0       -2.430856   -0.339974   -1.998573
     16          6           0       -2.203441    2.056128   -1.533212
     17          6           0        1.062457    2.577197   -0.026779
     18          6           0       -1.174039    2.910810   -0.979003
     19          6           0       -3.701401   -0.080314   -2.498273
     20          1           0       -2.030899   -1.347059   -1.988661
     21          6           0       -3.478789    2.294782   -2.051407
     22          6           0        1.122606    3.948146    0.203079
     23          1           0        1.884518    1.928871    0.256943
     24          6           0       -1.087354    4.284044   -0.740064
     25          6           0       -4.225158    1.221430   -2.521875
     26          1           0       -4.296343   -0.904775   -2.876046
     27          1           0       -3.879051    3.302931   -2.083261
     28          6           0        0.062906    4.796499   -0.150928
     29          1           0        2.010524    4.366380    0.666094
     30          1           0       -1.910693    4.939339   -1.005296
     31          1           0       -5.220339    1.389768   -2.919161
     32          1           0        0.143357    5.861395    0.039235
     33          7           0       -1.543520   -1.210996    0.887340
     34          6           0       -2.569641   -2.127603    0.621974
     35          6           0       -2.100819   -0.071342    1.492255
     36          6           0       -2.520833   -3.356464    0.023878
     37          6           0       -3.818851   -1.521492    1.056519
     38          6           0       -1.486687    1.032202    2.005719
     39          6           0       -3.533243   -0.270048    1.566524
     40          6           0       -3.759352   -4.054128   -0.156857
     41          1           0       -1.589308   -3.791936   -0.318439
     42          6           0       -5.049785   -2.261080    0.868846
     43          6           0       -2.324446    2.061283    2.558457
     44          1           0       -0.411392    1.156598    1.983365
     45          6           0       -4.349594    0.782305    2.134443
     46          6           0       -4.986732   -3.498037    0.268245
     47          1           0       -3.747982   -5.028219   -0.631904
     48          1           0       -5.991809   -1.835807    1.193932
     49          6           0       -3.723453    1.918531    2.606190
     50          1           0       -1.859851    2.965749    2.932513
     51          1           0       -5.426770    0.671940    2.172323
     52          1           0       -5.898431   -4.066668    0.115295
     53          1           0       -4.318882    2.722911    3.025721
     54          8           0        4.595707   -3.021882   -0.640301
     55          6           0        4.895550   -0.488756    0.059964
     56          6           0        5.019731    0.828463   -0.379182
     57          6           0        5.335849   -0.885228    1.321155
     58          6           0        5.589150    1.770796    0.474274
     59          1           0        4.693469    1.098145   -1.377392
     60          6           0        5.905859    0.065870    2.163855
     61          1           0        5.245050   -1.922345    1.623787
     62          6           0        6.026793    1.390395    1.743079
     63          1           0        5.697676    2.798514    0.144949
     64          1           0        6.258862   -0.227924    3.146397
     65          1           0        6.470599    2.127563    2.403937
 ---------------------------------------------------------------------

 The electronic state is 1-A.
 Alpha  occ. eigenvalues --  -89.23856 -19.24234 -19.24110 -14.48351 -14.48048
 Alpha  occ. eigenvalues --  -10.35093 -10.34877 -10.32404 -10.31950 -10.31822
 Alpha  occ. eigenvalues --  -10.31554 -10.31413 -10.31200 -10.31084 -10.31066
 Alpha  occ. eigenvalues --  -10.30762 -10.30518 -10.30517 -10.30207 -10.30035
 Alpha  occ. eigenvalues --  -10.30010 -10.28256 -10.28146 -10.28125 -10.28085
 Alpha  occ. eigenvalues --  -10.27938 -10.27879 -10.27840 -10.27832 -10.27789
 Alpha  occ. eigenvalues --  -10.27788 -10.27721 -10.27635 -10.27445 -10.27321
 Alpha  occ. eigenvalues --  -10.27241 -10.27221 -10.27131 -10.27100 -10.26927
 Alpha  occ. eigenvalues --  -10.26608  -8.22319  -6.17290  -6.17230  -6.17172
 Alpha  occ. eigenvalues --   -1.17935  -1.08225  -1.07593  -1.06252  -0.96839
 Alpha  occ. eigenvalues --   -0.95418  -0.92345  -0.92067  -0.91766  -0.91180
 Alpha  occ. eigenvalues --   -0.87301  -0.86563  -0.85515  -0.84144  -0.83923
 Alpha  occ. eigenvalues --   -0.83505  -0.82604  -0.82181  -0.80417  -0.79052
 Alpha  occ. eigenvalues --   -0.78694  -0.77536  -0.75786  -0.72668  -0.71837
 Alpha  occ. eigenvalues --   -0.70483  -0.69712  -0.69516  -0.67430  -0.67170
 Alpha  occ. eigenvalues --   -0.66574  -0.66253  -0.64325  -0.64025  -0.63815
 Alpha  occ. eigenvalues --   -0.61978  -0.60649  -0.59131  -0.58773  -0.58150
 Alpha  occ. eigenvalues --   -0.57979  -0.57064  -0.56670  -0.56013  -0.54947
 Alpha  occ. eigenvalues --   -0.54117  -0.52923  -0.52538  -0.52332  -0.51826
 Alpha  occ. eigenvalues --   -0.51717  -0.51342  -0.50910  -0.50773  -0.50633
 Alpha  occ. eigenvalues --   -0.50554  -0.49866  -0.49686  -0.49249  -0.49120
 Alpha  occ. eigenvalues --   -0.48261  -0.47860  -0.47559  -0.47389  -0.46844
 Alpha  occ. eigenvalues --   -0.46110  -0.45196  -0.45066  -0.44441  -0.42715
 Alpha  occ. eigenvalues --   -0.42593  -0.42505  -0.42258  -0.42047  -0.41736
 Alpha  occ. eigenvalues --   -0.41229  -0.40497  -0.39977  -0.39810  -0.39561
 Alpha  occ. eigenvalues --   -0.39405  -0.38843  -0.38797  -0.38239  -0.36692
 Alpha  occ. eigenvalues --   -0.35298  -0.35090  -0.34381  -0.33664  -0.33416
 Alpha  occ. eigenvalues --   -0.33155  -0.32500  -0.31534  -0.30940  -0.27079
 Alpha  occ. eigenvalues --   -0.26369  -0.25818  -0.25072
 Alpha virt. eigenvalues --   -0.00962   0.00956   0.01480   0.02410   0.02738
 Alpha virt. eigenvalues --    0.03298   0.05528   0.06839   0.08343   0.08646
 Alpha virt. eigenvalues --    0.09726   0.10088   0.11653   0.14354   0.14856

 Mulliken charges:
               1
     1  C    0.248716
     2  C    0.242828
     3  C   -0.129384
     4  C   -0.213461
     5  C   -0.124489
     6  C   -0.153967
     7  S    1.191007
     8  O   -0.564858
     9  H    0.191474
    10  H    0.184241
    11  H    0.172137
    12  N   -0.744203
    13  C    0.300940
    14  C    0.292358
    15  C   -0.130059
    16  C    0.028014
    17  C   -0.157659
    18  C    0.034926
    19  C   -0.139637
    20  H    0.129774
    21  C   -0.158689
    22  C   -0.145841
    23  H    0.130893
    24  C   -0.161106
    25  C   -0.148447
    26  H    0.135724
    27  H    0.131526
    28  C   -0.151142
    29  H    0.127454
    30  H    0.135108
    31  H    0.126755
    32  H    0.127930
    33  N   -0.741851
    34  C    0.310001
    35  C    0.314713
    36  C   -0.176535
    37  C    0.003635
    38  C   -0.153598
    39  C    0.006608
    40  C   -0.148211
    41  H    0.135873
    42  C   -0.139390
    43  C   -0.142079
    44  H    0.130066
    45  C   -0.138640
    46  C   -0.145521
    47  H    0.133597
    48  H    0.136222
    49  C   -0.142279
    50  H    0.135872
    51  H    0.133587
    52  H    0.129569
    53  H    0.127829
    54  O   -0.564451
    55  C   -0.204511
    56  C   -0.116329
    57  C   -0.109669
    58  C   -0.135057
    59  H    0.179592
    60  C   -0.132162
    61  H    0.174687
    62  C   -0.120378
    63  H    0.151120
    64  H    0.150484
    65  H    0.148338
 Sum of Mulliken charges =  -0.00000

 Dipole moment (field-independent basis, Debye):
    X=             -1.1416    Y=              2.6668    Z=              3.9343  Tot=              4.8881
 Quadrupole moment (field-independent basis, Debye-Ang):
   XX=           -225.5524   YY=           -224.2262   ZZ=           -245.1521
   XY=             18.7643   XZ=             24.5407   YZ=             -1.0184

 Normal termination of Gaussian 16 at Wed Aug 14 21:53:03 2024.
