 Gaussian 16, Revision C.01,
 Gaussian 16:  ES64L-G16RevC.01  3-Jul-2019

 ----------------------------------------------------------------------
 #p opt=Restart wB97XD/6-31G** iop(3/107=0119500000,3/108=0119500000) T
 DA=(triplets, nstates=4, root=2)
 ----------------------------------------------------------------------

 SCF Done:  E(RwB97XD) =  -2560.24730137     A.U. after    5 cycles

 Excitation energies and oscillator strengths:

 Excited State   1:      Triplet-A      2.9766 eV  416.53 nm  f=0.0000  <S**2>=2.000
     171 ->187         0.16801
     177 ->187        -0.19813
     184 ->187         0.11617
     185 ->187         0.24153
     186 ->187        -0.55155
     186 ->189         0.10674

 Excited State   2:      Triplet-A      3.0528 eV  406.13 nm  f=0.0000  <S**2>=2.000
     172 ->187        -0.16131
     183 ->187         0.12952
     185 ->187         0.59113
     186 ->187         0.26597
 This state for optimization and/or second-order correction.
 Total Energy, E(CIS/TDA) =  -2560.13511344
 Copying the excited state density for this state as the 1-particle RhoCI density.

 Excited State   3:      Triplet-A      3.3141 eV  374.11 nm  f=0.0000  <S**2>=2.000
     182 ->187         0.11661
     184 ->187         0.65216
     184 ->189        -0.12269
     186 ->187         0.12937

 Excited State   4:      Triplet-A      3.5042 eV  353.82 nm  f=0.0000  <S**2>=2.000
     181 ->187        -0.11066
     181 ->189         0.11707
     181 ->191         0.27401
     181 ->192         0.10503
     183 ->187        -0.30341
     183 ->189         0.20696
     183 ->191         0.27542
     183 ->192         0.19758
     185 ->191        -0.14033

 Optimization completed.
    -- Stationary point found.

                         Standard orientation:
 ---------------------------------------------------------------------
 Center     Atomic      Atomic             Coordinates (Angstroms)
 Number     Number       Type             X           Y           Z
 ---------------------------------------------------------------------
      1          6           0        0.971807    1.798368    1.196644
      2          6           0        2.425538    1.118740   -0.389060
      3          6           0       -0.132444    1.949346    2.036460
      4          6           0        2.145082    2.568930    1.366274
      5          6           0        3.044380    0.487033   -1.469820
      6          6           0        3.081289    2.125375    0.358182
      7          6           0       -0.053776    2.905770    3.042399
      8          1           0       -1.021035    1.341532    1.908753
      9          6           0        2.200679    3.523747    2.386001
     10          6           0        4.344121    0.866590   -1.782294
     11          1           0        2.531439   -0.276719   -2.042894
     12          6           0        4.388388    2.490541    0.023263
     13          6           0        1.098401    3.690643    3.216263
     14          1           0       -0.902362    3.047009    3.703540
     15          1           0        3.093555    4.124042    2.527725
     16          6           0        5.014717    1.856118   -1.043233
     17          1           0        4.849521    0.383697   -2.611980
     18          1           0        4.905518    3.259281    0.588245
     19          6           0        0.187274    0.009597   -0.363785
     20          6           0       -1.085433    0.445682   -0.852668
     21          6           0       -2.051803   -0.441015   -1.301141
     22          6           0       -1.794603   -1.841898   -1.316594
     23          6           0       -0.539678   -2.300640   -0.821186
     24          6           0        0.414884   -1.408653   -0.367437
     25          7           0        1.144519    0.922315    0.123539
     26         16           0       -3.108524   -2.953576   -1.544045
     27          8           0       -4.065954   -2.343954   -2.476982
     28          8           0       -2.537788   -4.285415   -1.786877
     29          1           0        1.126581    4.431014    4.008456
     30          1           0        6.030835    2.125863   -1.310113
     31          1           0       -2.980151   -0.061575   -1.711989
     32          1           0       -0.337700   -3.365053   -0.787527
     33          6           0       -4.058670   -3.889465    2.293918
     34          6           0       -3.489429   -3.920007    1.023140
     35          6           0       -3.941061   -3.026290    0.049876
     36          6           0       -4.956609   -2.109622    0.333867
     37          6           0       -5.517626   -2.086622    1.609397
     38          6           0       -5.067416   -2.970992    2.591058
     39          1           0       -3.719303   -4.587927    3.051726
     40          1           0       -2.716471   -4.637657    0.772573
     41          1           0       -5.313639   -1.449677   -0.448910
     42          1           0       -6.317390   -1.387732    1.832892
     43          1           0       -5.508831   -2.952193    3.581986
     44          6           0       -4.446731    4.026655    0.798232
     45          6           0       -4.474987    2.641588    1.003513
     46          6           0       -3.493924    1.810825    0.467131
     47          6           0       -2.494280    2.413064   -0.300475
     48          6           0       -2.440857    3.812196   -0.501483
     49          6           0       -3.426024    4.621675    0.052468
     50          1           0       -5.222488    4.647079    1.233125
     51          1           0       -5.269570    2.203927    1.597276
     52          1           0       -3.505934    0.741878    0.642867
     53          1           0       -3.399874    5.697262   -0.083833
     54          6           0       -0.637365    2.824025   -1.532540
     55          6           0        0.489136    2.694148   -2.342948
     56          6           0        1.047074    3.862523   -2.856798
     57          6           0        0.477820    5.113543   -2.594327
     58          6           0       -0.681946    5.227848   -1.822131
     59          6           0       -1.248441    4.075069   -1.290954
     60          1           0        0.912773    1.724986   -2.567852
     61          1           0        1.936961    3.793835   -3.471654
     62          1           0        0.934334    6.005818   -3.008021
     63          1           0       -1.133081    6.198510   -1.647479
     64          7           0       -1.387956    1.823957   -0.913805
     65          6           0        4.542313   -4.234578   -1.756627
     66          6           0        3.391521   -3.945629   -2.502048
     67          6           0        2.355531   -3.183265   -1.967541
     68          6           0        2.502426   -2.732425   -0.654218
     69          6           0        3.662833   -3.003946    0.107599
     70          6           0        4.687968   -3.761389   -0.451743
     71          1           0        5.332300   -4.828812   -2.202527
     72          1           0        3.302629   -4.318713   -3.516292
     73          1           0        1.470520   -2.951342   -2.547751
     74          1           0        5.588281   -3.975647    0.114084
     75          6           0        2.220109   -1.713291    1.348599
     76          6           0        1.686517   -1.053281    2.454509
     77          6           0        2.474500   -0.979857    3.599730
     78          6           0        3.742876   -1.572137    3.647393
     79          6           0        4.249034   -2.271151    2.549945
     80          6           0        3.481816   -2.348983    1.391277
     81          1           0        0.697706   -0.615510    2.425983
     82          1           0        2.093089   -0.454434    4.467912
     83          1           0        4.333844   -1.497728    4.553608
     84          1           0        5.221257   -2.749296    2.602638
     85          7           0        1.641071   -1.933493    0.099480
 ---------------------------------------------------------------------

 The electronic state is 1-A.
 Alpha  occ. eigenvalues --  -89.23308 -19.23246 -19.23154 -14.48157 -14.47732
 Alpha  occ. eigenvalues --  -14.47725 -10.35784 -10.35139 -10.35068 -10.32827
 Alpha  occ. eigenvalues --  -10.31322 -10.31272 -10.31245 -10.31107 -10.30990
 Alpha  occ. eigenvalues --  -10.30875 -10.30814 -10.30676 -10.30673 -10.29757
 Alpha  occ. eigenvalues --  -10.29718 -10.29503 -10.29319 -10.29239 -10.27446
 Alpha  occ. eigenvalues --  -10.27309 -10.27298 -10.27237 -10.27223 -10.27196
 Alpha  occ. eigenvalues --  -10.27101 -10.27095 -10.27059 -10.27035 -10.27026
 Alpha  occ. eigenvalues --  -10.27008 -10.27004 -10.26962 -10.26940 -10.26898
 Alpha  occ. eigenvalues --  -10.26884 -10.26829 -10.26807 -10.26781 -10.26759
 Alpha  occ. eigenvalues --  -10.26698 -10.26621 -10.26591 -10.26553 -10.26398
 Alpha  occ. eigenvalues --  -10.26312 -10.26221 -10.26124 -10.26079  -8.21733
 Alpha  occ. eigenvalues --   -6.16690  -6.16662  -6.16588  -1.16861  -1.08293
 Alpha  occ. eigenvalues --   -1.06766  -1.06397  -1.05746  -0.96399  -0.94462
 Alpha  occ. eigenvalues --   -0.92506  -0.91858  -0.91254  -0.91166  -0.91013
 Alpha  occ. eigenvalues --   -0.90895  -0.87068  -0.86519  -0.84802  -0.84356
 Alpha  occ. eigenvalues --   -0.83219  -0.83087  -0.82887  -0.81653  -0.81523
 Alpha  occ. eigenvalues --   -0.81487  -0.80080  -0.78489  -0.78446  -0.78198
 Alpha  occ. eigenvalues --   -0.78095  -0.77962  -0.75530  -0.72387  -0.72084
 Alpha  occ. eigenvalues --   -0.70572  -0.69136  -0.68860  -0.68711  -0.67196
 Alpha  occ. eigenvalues --   -0.66903  -0.66787  -0.66737  -0.65851  -0.63971
 Alpha  occ. eigenvalues --   -0.63826  -0.63794  -0.63324  -0.63135  -0.61325
 Alpha  occ. eigenvalues --   -0.60422  -0.59152  -0.58918  -0.57805  -0.57665
 Alpha  occ. eigenvalues --   -0.57469  -0.57270  -0.56469  -0.56198  -0.55501
 Alpha  occ. eigenvalues --   -0.55359  -0.54226  -0.53271  -0.52223  -0.51778
 Alpha  occ. eigenvalues --   -0.51495  -0.51324  -0.51266  -0.51159  -0.51117
 Alpha  occ. eigenvalues --   -0.50750  -0.50507  -0.50201  -0.49829  -0.49753
 Alpha  occ. eigenvalues --   -0.49468  -0.49322  -0.48952  -0.48543  -0.48368
 Alpha  occ. eigenvalues --   -0.47827  -0.47732  -0.47685  -0.47602  -0.47483
 Alpha  occ. eigenvalues --   -0.47114  -0.47018  -0.46817  -0.45423  -0.45192
 Alpha  occ. eigenvalues --   -0.44510  -0.43792  -0.42142  -0.41971  -0.41877
 Alpha  occ. eigenvalues --   -0.41862  -0.41819  -0.41727  -0.41656  -0.41374
 Alpha  occ. eigenvalues --   -0.41030  -0.40897  -0.39762  -0.39542  -0.39378
 Alpha  occ. eigenvalues --   -0.39332  -0.39026  -0.38908  -0.38855  -0.38760
 Alpha  occ. eigenvalues --   -0.38332  -0.38107  -0.37282  -0.35743  -0.35056
 Alpha  occ. eigenvalues --   -0.34637  -0.34089  -0.33301  -0.33190  -0.33104
 Alpha  occ. eigenvalues --   -0.32532  -0.31867  -0.30783  -0.30391  -0.30167
 Alpha  occ. eigenvalues --   -0.26856  -0.26624  -0.26057  -0.25734  -0.25146
 Alpha  occ. eigenvalues --   -0.25077
 Alpha virt. eigenvalues --   -0.03244   0.00298   0.01735   0.01885   0.01995
 Alpha virt. eigenvalues --    0.02051   0.02880   0.04724   0.05320   0.06064
 Alpha virt. eigenvalues --    0.07478   0.07667   0.08027   0.09161   0.09471

 Mulliken charges:
               1
     1  C    0.301181
     2  C    0.303511
     3  C   -0.134485
     4  C    0.033828
     5  C   -0.134553
     6  C    0.034099
     7  C   -0.149484
     8  H    0.124502
     9  C   -0.164599
    10  C   -0.149656
    11  H    0.126264
    12  C   -0.164110
    13  C   -0.151482
    14  H    0.136928
    15  H    0.138197
    16  C   -0.151836
    17  H    0.138929
    18  H    0.137713
    19  C    0.238916
    20  C    0.235527
    21  C   -0.134279
    22  C   -0.217659
    23  C   -0.137793
    24  C    0.238476
    25  N   -0.743134
    26  S    1.174147
    27  O   -0.572734
    28  O   -0.570365
    29  H    0.131566
    30  H    0.131711
    31  H    0.205608
    32  H    0.204528
    33  C   -0.133811
    34  C   -0.116599
    35  C   -0.189847
    36  C   -0.123744
    37  C   -0.137425
    38  C   -0.123490
    39  H    0.154620
    40  H    0.179480
    41  H    0.182699
    42  H    0.152229
    43  H    0.151989
    44  C   -0.152932
    45  C   -0.148480
    46  C   -0.157258
    47  C    0.300484
    48  C    0.030827
    49  C   -0.169551
    50  H    0.131697
    51  H    0.130806
    52  H    0.131859
    53  H    0.140545
    54  C    0.309545
    55  C   -0.121275
    56  C   -0.146108
    57  C   -0.150897
    58  C   -0.171053
    59  C    0.028391
    60  H    0.123899
    61  H    0.140130
    62  H    0.131055
    63  H    0.136891
    64  N   -0.749608
    65  C   -0.153125
    66  C   -0.146468
    67  C   -0.161830
    68  C    0.297243
    69  C    0.029167
    70  C   -0.169345
    71  H    0.132787
    72  H    0.139175
    73  H    0.144607
    74  H    0.139448
    75  C    0.307906
    76  C   -0.122099
    77  C   -0.147438
    78  C   -0.151249
    79  C   -0.169785
    80  C    0.028167
    81  H    0.121840
    82  H    0.138406
    83  H    0.130546
    84  H    0.136970
    85  N   -0.749451
 Sum of Mulliken charges =  -0.00000

 Dipole moment (field-independent basis, Debye):
    X=              1.0461    Y=              2.2540    Z=              4.6515  Tot=              5.2736
 Quadrupole moment (field-independent basis, Debye-Ang):
   XX=           -289.7225   YY=           -308.7971   ZZ=           -304.0006
   XY=             -9.6787   XZ=            -28.6803   YZ=            -10.0201

 Normal termination of Gaussian 16 at Sat Nov  2 06:15:40 2024.
